3
# CELL(abcABC):   35.23300    35.23300    35.23300    90.00000    90.00000    90.00000  Step:           0  Bead:       3 positions{atomic_unit}  cell{atomic_unit}
       O  0.00000e+00 -3.77945e-02  0.00000e+00
       H  1.41729e+00  9.44863e-01  0.00000e+00
       H -1.41729e+00  9.44863e-01  0.00000e+00
3
# CELL(abcABC):   35.23300    35.23300    35.23300    90.00000    90.00000    90.00000  Step:          40  Bead:       3 positions{atomic_unit}  cell{atomic_unit}
       O -5.53798e-03  4.94331e-03  6.93913e-02
       H  1.36291e+00  1.06201e+00  1.84977e-01
       H -1.29078e+00  1.18827e+00 -6.73521e-01
