96
# CELL(abcABC):   10.26000    10.26000    10.26000    90.00000    90.00000    90.00000  Step:           0  Bead:       0 positions{angstrom}  cell{angstrom}
       O  3.75600e+00  4.71000e+00 -7.66000e-01
       D  4.60400e+00  4.27200e+00 -5.89000e-01
       D  3.99800e+00  5.32000e+00 -1.47200e+00
       O  9.93300e+00  8.84100e+00  3.66000e-01
       H  1.01320e+01  8.19600e+00  1.12000e+00
       H  9.36800e+00  8.44900e+00 -3.16000e-01
       O  3.21000e-01  1.49200e+00  5.79600e+00
       H -2.87000e-01  1.99300e+00  5.24100e+00
       H  7.91000e-01  2.06100e+00  6.36400e+00
       O -2.22500e+00 -5.25000e-01  4.30700e+00
       H -3.05700e+00 -4.71000e-01  4.84700e+00
       H -1.62400e+00 -9.53000e-01  4.92000e+00
       O -4.59700e+00 -1.17800e+00  1.09200e+01
       H -3.88200e+00 -5.39000e-01  1.10740e+01
       H -5.04700e+00 -1.26900e+00  1.18120e+01
       O -2.13000e+00  2.15000e-01  1.14610e+01
       H -2.06400e+00 -6.50000e-02  1.23780e+01
       H -1.32200e+00 -1.61000e-01  1.10780e+01
       O  8.17700e+00  4.16500e+00  7.16000e-01
       H  7.89500e+00  5.06600e+00  8.40000e-01
       H  7.72200e+00  3.56200e+00  1.34100e+00
       O -3.91900e+00  3.25600e+00 -5.82000e-01
       H -3.12700e+00  3.42300e+00 -7.10000e-02
       H -3.75300e+00  2.39800e+00 -9.10000e-01
       O  1.03960e+01 -2.46200e+00  2.73800e+00
       H  1.02540e+01 -1.96000e+00  3.58400e+00
       H  1.05740e+01 -3.35500e+00  2.96600e+00
       O  5.02700e+00  2.56300e+00  6.16900e+00
       H  5.53800e+00  3.33600e+00  6.26200e+00
       H  5.31300e+00  2.03100e+00  6.92200e+00
       O -3.09600e+00  2.54200e+00  2.41800e+00
       H -4.01200e+00  2.46700e+00  2.66700e+00
       H -2.87600e+00  1.68100e+00  2.05700e+00
       O  3.33600e+00 -1.20900e+00  3.26500e+00
       H  2.81800e+00 -1.91900e+00  2.78700e+00
       H  2.73300e+00 -4.66000e-01  3.39800e+00
       O  1.47600e+00  1.42000e+00  8.19000e-01
       H  1.06000e+00  5.68000e-01  6.31000e-01
       H  1.58200e+00  1.50900e+00  1.77000e+00
       O  1.22200e+00  4.94600e+00  3.21800e+00
       H  2.11100e+00  4.70300e+00  3.52200e+00
       H  1.34200e+00  4.95600e+00  2.24500e+00
       O -3.47000e+00  6.49100e+00  4.48800e+00
       H -3.17700e+00  5.75500e+00  5.07400e+00
       H -3.51300e+00  7.29300e+00  4.97500e+00
       O -9.30000e-01  3.46500e+00  4.43000e+00
       H -2.86000e-01  3.95600e+00  3.91800e+00
       H -1.67700e+00  3.14300e+00  3.96600e+00
       O -2.77600e+00  4.54300e+00  6.37900e+00
       H -2.65600e+00  4.45000e+00  7.32800e+00
       H -2.01900e+00  4.09800e+00  5.98700e+00
       O  4.48000e-01  5.70100e+00  8.21900e+00
       H  5.73000e-01  4.84000e+00  7.87100e+00
       H  7.20000e-01  5.65100e+00  9.12300e+00
       O  1.09960e+01  4.08200e+00  5.45000e-01
       H  1.12920e+01  3.14700e+00  5.01000e-01
       H  1.00100e+01  3.97800e+00  4.76000e-01
       O  4.22900e+00  2.58200e+00  3.56200e+00
       H  4.65000e+00  2.36400e+00  4.42400e+00
       H  4.30600e+00  3.52600e+00  3.49600e+00
       O  1.40090e+01  5.31800e+00  3.59100e+00
       H  1.38370e+01  5.60000e+00  2.69000e+00
       H  1.47790e+01  5.81200e+00  3.83100e+00
       O  2.42000e-01  8.54000e+00  5.19500e+00
       H  2.43000e-01  9.45200e+00  5.45400e+00
       H  7.25000e-01  8.10200e+00  5.86400e+00
       O  6.06500e+00  1.05030e+01  8.17100e+00
       H  6.68500e+00  9.90000e+00  8.55900e+00
       H  5.23500e+00  1.02400e+01  8.58600e+00
       O  7.36200e+00  8.02900e+00  9.04900e+00
       H  6.71900e+00  7.83100e+00  8.31200e+00
       H  6.81300e+00  7.83900e+00  9.75700e+00
       O  1.97100e+00  1.17100e+00  3.63100e+00
       H  1.52000e+00  1.39900e+00  4.47400e+00
       H  2.82100e+00  1.57700e+00  3.53300e+00
       O  7.67400e+00  6.60500e+00  2.13400e+00
       H  7.14300e+00  6.49000e+00  2.91800e+00
       H  8.56300e+00  6.68100e+00  2.40900e+00
       O  2.76900e+00  7.38400e+00  7.27500e+00
       H  2.35300e+00  8.08800e+00  7.74800e+00
       H  2.24900e+00  6.55400e+00  7.40800e+00
       O  2.25300e+00  1.30510e+01  7.34900e+00
       H  2.71800e+00  1.34900e+01  8.07600e+00
       H  2.95500e+00  1.29310e+01  6.70700e+00
       O  3.65200e+00  9.95300e+00  9.29000e+00
       H  4.11400e+00  9.50900e+00  9.98300e+00
       H  3.19900e+00  1.06390e+01  9.78400e+00
       O  5.26300e+00  6.70800e+00  7.58900e+00
       H  4.31800e+00  7.08200e+00  7.70700e+00
       H  5.45500e+00  7.05700e+00  6.73300e+00
       O  3.50700e+00  6.72100e+00  1.02000e+00
       H  4.09700e+00  7.30300e+00  6.07000e-01
       H  3.58600e+00  5.98400e+00  4.19000e-01
       O  5.45500e+00  9.19600e+00  5.88800e+00
       H  5.47300e+00  9.60200e+00  6.75800e+00
       H  4.54900e+00  9.23800e+00  5.48400e+00
96
# CELL(abcABC):   10.26000    10.26000    10.26000    90.00000    90.00000    90.00000  Step:           1  Bead:       0 positions{angstrom}  cell{angstrom}
       O  3.75467e+00  4.71606e+00 -7.61416e-01
       H  4.60769e+00  4.26896e+00 -5.76417e-01
       H  4.01154e+00  5.29821e+00 -1.47471e+00
       O  9.93087e+00  8.83974e+00  3.60633e-01
       H  1.01106e+01  8.17782e+00  1.12922e+00
       H  9.39804e+00  8.43809e+00 -3.46039e-01
       O  3.18473e-01  1.50554e+00  5.79377e+00
       H -2.93075e-01  1.99904e+00  5.23053e+00
       H  7.85147e-01  2.08559e+00  6.39423e+00
       O -2.22196e+00 -5.17413e-01  4.30603e+00
       H -3.07304e+00 -5.11756e-01  4.84693e+00
       H -1.58563e+00 -9.46595e-01  4.89487e+00
       O -4.59621e+00 -1.17899e+00  1.09174e+01
       H -3.89514e+00 -5.44811e-01  1.10723e+01
       H -5.05081e+00 -1.24852e+00  1.18259e+01
       O -2.12310e+00  2.06510e-01  1.14737e+01
       H -2.08454e+00 -7.12756e-02  1.23841e+01
       H -1.31668e+00 -1.31883e-01  1.10861e+01
       O  8.16693e+00  4.15988e+00  7.14473e-01
       H  7.92988e+00  5.06970e+00  8.05843e-01
       H  7.70838e+00  3.54521e+00  1.34491e+00
       O -3.91476e+00  3.25683e+00 -5.75295e-01
       H -3.15115e+00  3.44664e+00 -5.07229e-02
       H -3.72608e+00  2.37249e+00 -9.00396e-01
       O  1.03955e+01 -2.46210e+00  2.73481e+00
       H  1.02521e+01 -1.97387e+00  3.58200e+00
       H  1.05735e+01 -3.37605e+00  2.96290e+00
       O  5.02117e+00  2.56396e+00  6.17391e+00
       H  5.55472e+00  3.32772e+00  6.27211e+00
       H  5.29757e+00  2.02139e+00  6.91532e+00
       O -3.09341e+00  2.53922e+00  2.42187e+00
       H -4.02615e+00  2.48171e+00  2.66467e+00
       H -2.85249e+00  1.68079e+00  2.10222e+00
       O  3.33452e+00 -1.20876e+00  3.26253e+00
       H  2.80426e+00 -1.90302e+00  2.79263e+00
       H  2.76255e+00 -4.75482e-01  3.39614e+00
       O  1.46636e+00  1.42548e+00  8.20133e-01
       H  1.07752e+00  6.11874e-01  6.54538e-01
       H  1.57637e+00  1.53517e+00  1.76729e+00
       O  1.22553e+00  4.94073e+00  3.21844e+00
       H  2.10107e+00  4.71771e+00  3.52169e+00
       H  1.36101e+00  4.95143e+00  2.22218e+00
       O -3.47422e+00  6.49511e+00  4.48989e+00
       H -3.19244e+00  5.76045e+00  5.06670e+00
       H -3.51989e+00  7.28321e+00  4.98230e+00
       O -9.38589e-01  3.46319e+00  4.43248e+00
       H -2.66570e-01  3.96484e+00  3.90381e+00
       D -1.69246e+00  3.13599e+00  3.97356e+00
       O -2.77171e+00  4.53748e+00  6.38437e+00
       H -2.65562e+00  4.44317e+00  7.32487e+00
       H -2.05867e+00  4.08447e+00  5.97061e+00
       O  4.43447e-01  5.70005e+00  8.21265e+00
       H  5.74525e-01  4.86894e+00  7.88175e+00
       H  7.24516e-01  5.67301e+00  9.15826e+00
       O  1.09977e+01  4.08004e+00  5.42376e-01
       H  1.13151e+01  3.16437e+00  5.15266e-01
       H  1.00164e+01  3.99319e+00  4.78986e-01
       O  4.22217e+00  2.57964e+00  3.55425e+00
       H  4.62733e+00  2.35922e+00  4.42996e+00
       H  4.31110e+00  3.53702e+00  3.49831e+00
       O  1.40167e+01  5.31707e+00  3.59000e+00
       H  1.38287e+01  5.61125e+00  2.70899e+00
       H  1.47538e+01  5.80764e+00  3.81089e+00
       O  2.41799e-01  8.53576e+00  5.20288e+00
       H  2.83365e-01  9.45958e+00  5.43257e+00
       H  7.11486e-01  8.11300e+00  5.85352e+00
       O  6.05829e+00  1.05030e+01  8.17076e+00
       H  6.70552e+00  9.90599e+00  8.56310e+00
       H  5.23659e+00  1.02590e+01  8.58195e+00
       O  7.36304e+00  8.02721e+00  9.04511e+00
       H  6.73598e+00  7.85525e+00  8.29354e+00
       H  6.84550e+00  7.84176e+00  9.73762e+00
       O  1.96641e+00  1.16689e+00  3.63215e+00
       H  1.52736e+00  1.38963e+00  4.45070e+00
       H  2.82011e+00  1.59241e+00  3.52849e+00
       O  7.67527e+00  6.61671e+00  2.12709e+00
       H  7.13598e+00  6.46273e+00  2.93930e+00
       H  8.53274e+00  6.63375e+00  2.42839e+00
       O  2.77351e+00  7.37985e+00  7.28032e+00
       H  2.37337e+00  8.09974e+00  7.74475e+00
       H  2.27625e+00  6.54823e+00  7.42466e+00
       O  2.26069e+00  1.30481e+01  7.33851e+00
       H  2.70629e+00  1.34669e+01  8.06639e+00
       H  2.93295e+00  1.29398e+01  6.69464e+00
       O  3.65140e+00  9.95298e+00  9.29258e+00
       H  4.09344e+00  9.51892e+00  9.99892e+00
       H  3.22032e+00  1.06121e+01  9.77050e+00
       O  5.25634e+00  6.70733e+00  7.58452e+00
       H  4.33590e+00  7.05960e+00  7.69875e+00
       D  5.47065e+00  7.06685e+00  6.73881e+00
       O  3.50782e+00  6.72382e+00  1.02674e+00
       H  4.08379e+00  7.29205e+00  5.96232e-01
       H  3.59926e+00  5.98517e+00  4.29112e-01
       O  5.45999e+00  9.19814e+00  5.88764e+00
       H  5.47024e+00  9.63788e+00  6.77998e+00
       H  4.56685e+00  9.25787e+00  5.51330e+00
96
# CELL(abcABC):   10.26000    10.26000    10.26000    90.00000    90.00000    90.00000  Step:           2  Bead:       0 positions{angstrom}  cell{angstrom}
       O  3.75444e+00  4.72015e+00 -7.55957e-01
       H  4.62421e+00  4.26129e+00 -5.84706e-01
       H  4.00783e+00  5.26421e+00 -1.47878e+00
       O  9.93260e+00  8.84290e+00  3.56109e-01
       H  1.01045e+01  8.16108e+00  1.14300e+00
       H  9.42826e+00  8.42922e+00 -3.56935e-01
       O  3.21864e-01  1.51567e+00  5.79257e+00
       H -3.07136e-01  2.01088e+00  5.22443e+00
       H  7.77106e-01  2.10802e+00  6.41986e+00
       O -2.21926e+00 -5.07486e-01  4.30386e+00
       H -3.08907e+00 -5.54822e-01  4.84173e+00
       H -1.55621e+00 -9.35773e-01  4.88370e+00
       O -4.59606e+00 -1.17835e+00  1.09131e+01
       H -3.90207e+00 -5.49610e-01  1.10712e+01
       H -5.04926e+00 -1.23592e+00  1.18165e+01
       O -2.11256e+00  2.02595e-01  1.14833e+01
       H -2.08228e+00 -7.98802e-02  1.23770e+01
       H -1.31231e+00 -9.84101e-02  1.10910e+01
       O  8.15949e+00  4.15360e+00  7.15771e-01
       H  7.95859e+00  5.06757e+00  7.77889e-01
       H  7.69264e+00  3.53346e+00  1.34112e+00
       O -3.90874e+00  3.26097e+00 -5.74295e-01
       H -3.16162e+00  3.46855e+00 -3.21648e-02
       H -3.71146e+00  2.36395e+00 -8.76147e-01
       O  1.03901e+01 -2.46053e+00  2.73463e+00
       H  1.02436e+01 -1.99611e+00  3.57202e+00
       H  1.05748e+01 -3.40161e+00  2.94893e+00
       O  5.01424e+00  2.56659e+00  6.17506e+00
       H  5.57775e+00  3.34213e+00  6.27362e+00
       H  5.30257e+00  2.02207e+00  6.91466e+00
       O -3.08855e+00  2.53825e+00  2.41975e+00
       H -4.03106e+00  2.49725e+00  2.64547e+00
       H -2.83446e+00  1.67089e+00  2.15378e+00
       O  3.33604e+00 -1.20676e+00  3.25574e+00
       D  2.79865e+00 -1.89468e+00  2.79449e+00
       H  2.79161e+00 -4.76580e-01  3.40531e+00
       O  1.45606e+00  1.43077e+00  8.22898e-01
       H  1.09879e+00  6.47192e-01  6.66844e-01
       H  1.55574e+00  1.56650e+00  1.77747e+00
       O  1.22831e+00  4.93258e+00  3.21880e+00
       H  2.09168e+00  4.71604e+00  3.52923e+00
       H  1.36530e+00  4.95197e+00  2.22139e+00
       O -3.47616e+00  6.49840e+00  4.49317e+00
       H -3.20162e+00  5.77743e+00  5.05246e+00
       H -3.52645e+00  7.27534e+00  4.99627e+00
       O -9.43804e-01  3.45909e+00  4.43062e+00
       H -2.64380e-01  3.95403e+00  3.90208e+00
       H -1.70128e+00  3.13291e+00  3.98821e+00
       O -2.77222e+00  4.53188e+00  6.38637e+00
       H -2.66041e+00  4.44152e+00  7.32510e+00
       H -2.09200e+00  4.07365e+00  5.97124e+00
       O  4.38275e-01  5.70096e+00  8.20745e+00
       H  5.64110e-01  4.90603e+00  7.89835e+00
       H  7.25832e-01  5.70149e+00  9.18870e+00
       O  1.09975e+01  4.07795e+00  5.36181e-01
       H  1.13355e+01  3.17041e+00  5.25491e-01
       H  1.00095e+01  4.00304e+00  4.83049e-01
       O  4.22190e+00  2.57815e+00  3.55067e+00
       H  4.60396e+00  2.33976e+00  4.42969e+00
       H  4.33164e+00  3.54728e+00  3.50769e+00
       O  1.40235e+01  5.32123e+00  3.59328e+00
       H  1.38160e+01  5.62318e+00  2.71272e+00
       H  1.47298e+01  5.81860e+00  3.77820e+00
       O  2.43764e-01  8.53347e+00  5.21200e+00
       H  2.96724e-01  9.46347e+00  5.42333e+00
       H  7.12078e-01  8.12123e+00  5.85115e+00
       O  6.05305e+00  1.05041e+01  8.16822e+00
       H  6.72009e+00  9.90750e+00  8.55341e+00
       D  5.22284e+00  1.02745e+01  8.58637e+00
       O  7.36100e+00  8.02279e+00  9.04143e+00
       H  6.76512e+00  7.87828e+00  8.28747e+00
       H  6.86679e+00  7.85139e+00  9.72747e+00
       O  1.96206e+00  1.16121e+00  3.63532e+00
       H  1.53507e+00  1.37395e+00  4.43046e+00
       H  2.81582e+00  1.59875e+00  3.53239e+00
       O  7.67836e+00  6.62497e+00  2.12228e+00
       H  7.14908e+00  6.46166e+00  2.96167e+00
       H  8.51404e+00  6.58163e+00  2.46222e+00
       O  2.77901e+00  7.37642e+00  7.28407e+00
       H  2.39816e+00  8.11647e+00  7.73766e+00
       H  2.30228e+00  6.55404e+00  7.43772e+00
       O  2.26465e+00  1.30491e+01  7.32526e+00
       H  2.68801e+00  1.34491e+01  8.04270e+00
       H  2.91889e+00  1.29654e+01  6.69482e+00
       O  3.65002e+00  9.95121e+00  9.29259e+00
       H  4.09266e+00  9.51360e+00  1.00033e+01
       H  3.24070e+00  1.05995e+01  9.75784e+00
       O  5.25097e+00  6.70498e+00  7.58006e+00
       H  4.35817e+00  7.04612e+00  7.67109e+00
       H  5.47619e+00  7.06378e+00  6.73696e+00
       O  3.50951e+00  6.72586e+00  1.03546e+00
       H  4.10390e+00  7.28950e+00  5.87938e-01
       H  3.60846e+00  5.98981e+00  4.46146e-01
       O  5.46539e+00  9.19854e+00  5.88476e+00
       H  5.46473e+00  9.65579e+00  6.79960e+00
       H  4.57087e+00  9.28624e+00  5.52318e+00
96
# CELL(abcABC):   10.26000    10.26000    10.26000    90.00000    90.00000    90.00000  Step:           3  Bead:       0 positions{angstrom}  cell{angstrom}
       O  3.75455e+00  4.72066e+00 -7.49972e-01
       H  4.63167e+00  4.27644e+00 -5.87541e-01
       H  4.00002e+00  5.23434e+00 -1.48490e+00
       O  9.93902e+00  8.84648e+00  3.50040e-01
       H  1.00737e+01  8.13385e+00  1.15578e+00
       H  9.46080e+00  8.43954e+00 -3.77290e-01
       O  3.24730e-01  1.52057e+00  5.79215e+00
       H -3.22342e-01  2.03375e+00  5.21755e+00
       H  7.80369e-01  2.13132e+00  6.43910e+00
       O -2.22280e+00 -4.97131e-01  4.30023e+00
       H -3.08912e+00 -5.83423e-01  4.84422e+00
       H -1.53552e+00 -9.35364e-01  4.86137e+00
       O -4.59518e+00 -1.17767e+00  1.09085e+01
       H -3.92225e+00 -5.54077e-01  1.10674e+01
       H -5.05197e+00 -1.24234e+00  1.18110e+01
       O -2.10732e+00  1.95070e-01  1.14920e+01
       H -2.07192e+00 -8.54633e-02  1.23857e+01
       H -1.30153e+00 -7.16744e-02  1.10923e+01
       O  8.15557e+00  4.15106e+00  7.19578e-01
       H  7.97123e+00  5.05876e+00  7.51963e-01
       H  7.67960e+00  3.52343e+00  1.34832e+00
       O -3.90817e+00  3.26285e+00 -5.76178e-01
       H -3.16106e+00  3.48247e+00 -3.35778e-02
       H -3.68532e+00  2.35685e+00 -8.60157e-01
       O  1.03896e+01 -2.45853e+00  2.73393e+00
       H  1.02180e+01 -2.01450e+00  3.55961e+00
       H  1.05781e+01 -3.40085e+00  2.93040e+00
       O  5.01159e+00  2.56981e+00  6.17315e+00
       H  5.58868e+00  3.34341e+00  6.28376e+00
       H  5.31078e+00  2.03436e+00  6.90411e+00
       O -3.08343e+00  2.53467e+00  2.41918e+00
       H -4.04999e+00  2.51766e+00  2.65793e+00
       H -2.82399e+00  1.66033e+00  2.17752e+00
       O  3.33750e+00 -1.20442e+00  3.24955e+00
       H  2.79726e+00 -1.87656e+00  2.78234e+00
       H  2.79957e+00 -4.80753e-01  3.40469e+00
       O  1.45105e+00  1.43319e+00  8.25374e-01
       H  1.10973e+00  6.44539e-01  6.68890e-01
       H  1.53848e+00  1.61401e+00  1.77177e+00
       O  1.23249e+00  4.92151e+00  3.22285e+00
       H  2.06527e+00  4.70457e+00  3.53279e+00
       D  1.37300e+00  4.93903e+00  2.21726e+00
       O -3.48289e+00  6.50171e+00  4.50022e+00
       H -3.20600e+00  5.81658e+00  5.06046e+00
       H -3.52904e+00  7.27624e+00  4.99716e+00
       O -9.47152e-01  3.45709e+00  4.43421e+00
       H -2.67784e-01  3.95237e+00  3.90571e+00
       H -1.69809e+00  3.13032e+00  4.01507e+00
       O -2.77314e+00  4.52795e+00  6.39418e+00
       H -2.65489e+00  4.44576e+00  7.32470e+00
       H -2.11394e+00  4.07049e+00  5.96891e+00
       O  4.37580e-01  5.69863e+00  8.19928e+00
       H  5.53390e-01  4.92518e+00  7.91263e+00
       H  7.22802e-01  5.70799e+00  9.20106e+00
       O  1.09951e+01  4.07521e+00  5.31499e-01
       H  1.13606e+01  3.16049e+00  5.21250e-01
       H  1.00192e+01  4.00365e+00  4.98897e-01
       O  4.21706e+00  2.58080e+00  3.54937e+00
       H  4.60174e+00  2.33196e+00  4.42501e+00
       H  4.35155e+00  3.53701e+00  3.50844e+00
       O  1.40304e+01  5.32156e+00  3.59323e+00
       H  1.38077e+01  5.63051e+00  2.70088e+00
       H  1.47041e+01  5.83053e+00  3.75219e+00
       O  2.43724e-01  8.53223e+00  5.22123e+00
       H  3.08168e-01  9.47542e+00  5.42561e+00
       H  7.07018e-01  8.12696e+00  5.83778e+00
       O  6.04997e+00  1.05068e+01  8.16764e+00
       D  6.73846e+00  9.90189e+00  8.55089e+00
       H  5.21700e+00  1.02723e+01  8.58669e+00
       O  7.35757e+00  8.01656e+00  9.03606e+00
       H  6.78753e+00  7.88461e+00  8.29274e+00
       H  6.89212e+00  7.86662e+00  9.72442e+00
       O  1.95826e+00  1.15864e+00  3.63749e+00
       H  1.53643e+00  1.36206e+00  4.40293e+00
       H  2.81891e+00  1.59437e+00  3.50409e+00
       O  7.67880e+00  6.63399e+00  2.11946e+00
       H  7.17006e+00  6.47509e+00  2.98978e+00
       H  8.49253e+00  6.53956e+00  2.46555e+00
       O  2.78623e+00  7.37611e+00  7.28619e+00
       H  2.39572e+00  8.12394e+00  7.73950e+00
       H  2.33066e+00  6.54409e+00  7.44748e+00
       O  2.26597e+00  1.30512e+01  7.31564e+00
       H  2.68425e+00  1.34326e+01  8.02927e+00
       H  2.91031e+00  1.29915e+01  6.69099e+00
       O  3.64833e+00  9.95229e+00  9.29190e+00
       H  4.08250e+00  9.50306e+00  9.99965e+00
       H  3.25829e+00  1.05861e+01  9.76167e+00
       O  5.25163e+00  6.70208e+00  7.57457e+00
       H  4.38413e+00  7.03070e+00  7.63545e+00
       H  5.46919e+00  7.06713e+00  6.72963e+00
       O  3.50880e+00  6.72541e+00  1.04361e+00
       H  4.12875e+00  7.30273e+00  5.86850e-01
       H  3.62389e+00  6.00773e+00  4.56399e-01
       O  5.47477e+00  9.19427e+00  5.88382e+00
       H  5.46371e+00  9.67340e+00  6.82224e+00
       H  4.58222e+00  9.30166e+00  5.51227e+00
96
# CELL(abcABC):   10.26000    10.26000    10.26000    90.00000    90.00000    90.00000  Step:           4  Bead:       0 positions{angstrom}  cell{angstrom}
       O  3.75710e+00  4.72009e+00 -7.41534e-01
       H  4.63831e+00  4.30053e+00 -5.84677e-01
       H  3.99215e+00  5.20250e+00 -1.48747e+00
       O  9.94238e+00  8.84594e+00  3.50649e-01
       H  1.00280e+01  8.12010e+00  1.16237e+00
       D  9.49349e+00  8.43928e+00 -3.88860e-01
       O  3.26287e-01  1.52371e+00  5.79277e+00
       H -3.32089e-01  2.03482e+00  5.22220e+00
       H  7.88412e-01  2.13364e+00  6.46300e+00
       O -2.22530e+00 -4.87430e-01  4.30094e+00
       H -3.10655e+00 -6.09018e-01  4.82237e+00
       H -1.51255e+00 -9.28280e-01  4.86238e+00
       O -4.60059e+00 -1.17486e+00  1.08990e+01
       H -3.92775e+00 -5.45065e-01  1.10660e+01
       H -5.04993e+00 -1.23779e+00  1.18138e+01
       O -2.10831e+00  1.88709e-01  1.14971e+01
       H -2.06113e+00 -9.54426e-02  1.23961e+01
       H -1.30322e+00 -3.84257e-02  1.10977e+01
       O  8.15606e+00  4.15177e+00  7.21330e-01
       H  7.98309e+00  5.06520e+00  7.54861e-01
       H  7.67584e+00  3.52768e+00  1.35073e+00
       O -3.90704e+00  3.26433e+00 -5.79418e-01
       H -3.14544e+00  3.50058e+00 -4.15828e-02
       H -3.66967e+00  2.35439e+00 -8.47323e-01
       O  1.03914e+01 -2.45850e+00  2.73766e+00
       H  1.01928e+01 -2.01866e+00  3.54613e+00
       H  1.05897e+01 -3.39011e+00  2.91126e+00
       O  5.00933e+00  2.56876e+00  6.17420e+00
       H  5.60365e+00  3.33165e+00  6.28528e+00
       H  5.30372e+00  2.03418e+00  6.90044e+00
       O -3.07944e+00  2.53311e+00  2.41790e+00
       H -4.05815e+00  2.54503e+00  2.66546e+00
       H -2.80415e+00  1.65866e+00  2.19715e+00
       O  3.33964e+00 -1.19782e+00  3.24527e+00
       H  2.79760e+00 -1.85217e+00  2.76215e+00
       H  2.78930e+00 -4.93752e-01  3.40453e+00
       O  1.44680e+00  1.43284e+00  8.30975e-01
       H  1.13392e+00  6.33185e-01  6.81368e-01
       H  1.52988e+00  1.65598e+00  1.76721e+00
       O  1.23882e+00  4.91546e+00  3.22702e+00
       H  2.04589e+00  4.67139e+00  3.53322e+00
       H  1.38172e+00  4.93844e+00  2.21474e+00
       O -3.48601e+00  6.50226e+00  4.50563e+00
       H -3.22703e+00  5.84029e+00  5.04908e+00
       H -3.53601e+00  7.26726e+00  5.00107e+00
       O -9.50920e-01  3.45349e+00  4.43736e+00
       H -2.48624e-01  3.94952e+00  3.91829e+00
       H -1.69565e+00  3.12191e+00  4.03924e+00
       O -2.77132e+00  4.52095e+00  6.40241e+00
       H -2.64716e+00  4.45147e+00  7.33648e+00
       H -2.14642e+00  4.08822e+00  5.97303e+00
       O  4.38457e-01  5.69616e+00  8.19284e+00
       H  5.60054e-01  4.93270e+00  7.93919e+00
       H  7.22277e-01  5.71759e+00  9.20270e+00
       O  1.09919e+01  4.07025e+00  5.31649e-01
       H  1.13694e+01  3.15660e+00  5.23487e-01
       H  1.00209e+01  4.00297e+00  5.09077e-01
       O  4.20974e+00  2.58366e+00  3.54882e+00
       H  4.59075e+00  2.33724e+00  4.42518e+00
       H  4.37944e+00  3.53972e+00  3.51011e+00
       O  1.40359e+01  5.32104e+00  3.59207e+00
       H  1.37848e+01  5.64311e+00  2.68740e+00
       H  1.46970e+01  5.84483e+00  3.73012e+00
       O  2.40969e-01  8.53265e+00  5.23381e+00
       H  3.20326e-01  9.48872e+00  5.42436e+00
       H  7.03513e-01  8.14547e+00  5.82053e+00
       O  6.04529e+00  1.05124e+01  8.16504e+00
       D  6.74466e+00  9.90225e+00  8.55106e+00
       H  5.21081e+00  1.02601e+01  8.59940e+00
       O  7.35320e+00  8.00959e+00  9.03371e+00
       H  6.79769e+00  7.89450e+00  8.29252e+00
       H  6.92051e+00  7.88670e+00  9.72914e+00
       O  1.95337e+00  1.15456e+00  3.63964e+00
       H  1.52541e+00  1.36695e+00  4.36965e+00
       H  2.82687e+00  1.57734e+00  3.49687e+00
       O  7.67860e+00  6.63927e+00  2.11607e+00
       H  7.19501e+00  6.48805e+00  3.01905e+00
       H  8.48955e+00  6.50056e+00  2.46187e+00
       O  2.78679e+00  7.37090e+00  7.28715e+00
       H  2.39792e+00  8.12629e+00  7.75055e+00
       H  2.33177e+00  6.52488e+00  7.47656e+00
       O  2.26854e+00  1.30521e+01  7.31025e+00
       H  2.68335e+00  1.34140e+01  8.01412e+00
       H  2.89811e+00  1.30101e+01  6.68901e+00
       O  3.64239e+00  9.95519e+00  9.29044e+00
       H  4.06928e+00  9.48894e+00  9.97982e+00
       H  3.25995e+00  1.05604e+01  9.78083e+00
       O  5.25362e+00  6.70073e+00  7.56732e+00
       H  4.39576e+00  7.02344e+00  7.62377e+00
       H  5.46608e+00  7.07451e+00  6.73800e+00
       O  3.50720e+00  6.72764e+00  1.05312e+00
       H  4.16096e+00  7.31615e+00  5.75567e-01
       H  3.62896e+00  6.04302e+00  4.66052e-01
       O  5.47833e+00  9.18796e+00  5.88604e+00
       H  5.47267e+00  9.68396e+00  6.82493e+00
       H  4.60112e+00  9.31183e+00  5.50633e+00
96
# CELL(abcABC):   10.26000    10.26000    10.26000    90.00000    90.00000    90.00000  Step:           5  Bead:       0 positions{angstrom}  cell{angstrom}
       O  3.75830e+00  4.72072e+00 -7.34031e-01
       H  4.62882e+00  4.32287e+00 -5.80584e-01
       H  3.98893e+00  5.17100e+00 -1.50522e+00
       O  9.94789e+00  8.84484e+00  3.56172e-01
       H  9.99284e+00  8.11456e+00  1.15101e+00
       H  9.52013e+00  8.43898e+00 -3.97768e-01
       O  3.25495e-01  1.52674e+00  5.79146e+00
       H -3.48876e-01  2.04693e+00  5.21368e+00
       H  8.04437e-01  2.13282e+00  6.47541e+00
       O -2.22632e+00 -4.76433e-01  4.30091e+00
       H -3.09696e+00 -6.23340e-01  4.81271e+00
       H -1.48763e+00 -9.11446e-01  4.86209e+00
       O -4.60241e+00 -1.17363e+00  1.08919e+01
       H -3.93591e+00 -5.46872e-01  1.10611e+01
       H -5.04536e+00 -1.24022e+00  1.17856e+01
       O -2.10663e+00  1.83398e-01  1.15011e+01
       H -2.04014e+00 -1.12335e-01  1.24180e+01
       H -1.31177e+00 -2.99944e-02  1.11045e+01
       O  8.15634e+00  4.15305e+00  7.23422e-01
       H  7.98578e+00  5.06219e+00  7.59812e-01
       H  7.65906e+00  3.53804e+00  1.36460e+00
       O -3.90592e+00  3.26594e+00 -5.83800e-01
       H -3.13610e+00  3.51646e+00 -6.14033e-02
       H -3.64377e+00  2.35850e+00 -8.43453e-01
       O  1.03950e+01 -2.45577e+00  2.73371e+00
       H  1.01698e+01 -2.02427e+00  3.52950e+00
       H  1.05851e+01 -3.36918e+00  2.91012e+00
       O  5.00805e+00  2.57403e+00  6.17319e+00
       H  5.61409e+00  3.31906e+00  6.28181e+00
       H  5.28581e+00  2.02679e+00  6.90836e+00
       O -3.07744e+00  2.53079e+00  2.41648e+00
       H -4.06143e+00  2.54415e+00  2.67620e+00
       H -2.78405e+00  1.65454e+00  2.21383e+00
       O  3.33880e+00 -1.18950e+00  3.23893e+00
       H  2.80349e+00 -1.82551e+00  2.73432e+00
       H  2.78526e+00 -5.14585e-01  3.41752e+00
       O  1.44530e+00  1.43115e+00  8.36027e-01
       D  1.15874e+00  6.30832e-01  6.85673e-01
       H  1.52516e+00  1.67921e+00  1.77106e+00
       O  1.24201e+00  4.91470e+00  3.22949e+00
       H  2.03788e+00  4.65093e+00  3.53968e+00
       H  1.37701e+00  4.94273e+00  2.22491e+00
       O -3.49124e+00  6.50187e+00  4.51089e+00
       H -3.23540e+00  5.86629e+00  5.02861e+00
       H -3.54696e+00  7.25574e+00  4.98677e+00
       O -9.53392e-01  3.44659e+00  4.44027e+00
       H -2.47362e-01  3.92590e+00  3.91367e+00
       H -1.68596e+00  3.13315e+00  4.05416e+00
       O -2.77208e+00  4.51526e+00  6.40633e+00
       H -2.64831e+00  4.46210e+00  7.33802e+00
       H -2.16805e+00  4.09712e+00  5.97585e+00
       O  4.38557e-01  5.69459e+00  8.18416e+00
       H  5.73501e-01  4.92281e+00  7.96823e+00
       H  7.22324e-01  5.69468e+00  9.18550e+00
       O  1.09883e+01  4.07077e+00  5.31171e-01
       H  1.13774e+01  3.15280e+00  5.14459e-01
       H  1.00209e+01  4.01014e+00  5.01993e-01
       O  4.20046e+00  2.58888e+00  3.55036e+00
       D  4.56088e+00  2.33839e+00  4.42832e+00
       H  4.39231e+00  3.53423e+00  3.51690e+00
       O  1.40409e+01  5.31815e+00  3.58729e+00
       H  1.37783e+01  5.65522e+00  2.68409e+00
       H  1.46876e+01  5.87714e+00  3.70821e+00
       O  2.35728e-01  8.53353e+00  5.24009e+00
       H  3.18320e-01  9.47122e+00  5.41502e+00
       H  6.97109e-01  8.16073e+00  5.80197e+00
       O  6.03616e+00  1.05173e+01  8.16619e+00
       H  6.74719e+00  9.89299e+00  8.54766e+00
       H  5.21159e+00  1.02813e+01  8.59890e+00
       O  7.34984e+00  8.00363e+00  9.03447e+00
       H  6.80967e+00  7.92797e+00  8.29644e+00
       H  6.92920e+00  7.89432e+00  9.74179e+00
       O  1.94940e+00  1.15434e+00  3.64142e+00
       H  1.51245e+00  1.39256e+00  4.33326e+00
       H  2.81888e+00  1.56498e+00  3.50276e+00
       O  7.67351e+00  6.64770e+00  2.11548e+00
       H  7.22934e+00  6.49233e+00  3.05304e+00
       H  8.48931e+00  6.46816e+00  2.45004e+00
       O  2.78659e+00  7.36823e+00  7.28654e+00
       H  2.39224e+00  8.10306e+00  7.77047e+00
       H  2.32085e+00  6.51770e+00  7.51926e+00
       O  2.26850e+00  1.30474e+01  7.30643e+00
       H  2.70491e+00  1.34100e+01  7.99991e+00
       H  2.89266e+00  1.30239e+01  6.68336e+00
       O  3.64012e+00  9.95554e+00  9.28829e+00
       H  4.05724e+00  9.49464e+00  9.95070e+00
       H  3.27580e+00  1.05460e+01  9.78546e+00
       O  5.25498e+00  6.70006e+00  7.56251e+00
       H  4.40576e+00  7.01077e+00  7.61871e+00
       H  5.48008e+00  7.07770e+00  6.74647e+00
       O  3.50839e+00  6.72745e+00  1.06035e+00
       H  4.18318e+00  7.32264e+00  5.78437e-01
       H  3.63471e+00  6.07591e+00  4.69320e-01
       O  5.48071e+00  9.18306e+00  5.88337e+00
       H  5.47635e+00  9.67917e+00  6.84956e+00
       H  4.61423e+00  9.32855e+00  5.51763e+00
96
# CELL(abcABC):   10.26000    10.26000    10.26000    90.00000    90.00000    90.00000  Step:           6  Bead:       0 positions{angstrom}  cell{angstrom}
       O  3.75896e+00  4.72042e+00 -7.26282e-01
       H  4.61601e+00  4.33525e+00 -5.61922e-01
       H  3.99135e+00  5.15078e+00 -1.51605e+00
       O  9.95301e+00  8.84410e+00  3.59779e-01
       H  9.96082e+00  8.09691e+00  1.14287e+00
       H  9.54364e+00  8.44299e+00 -4.13631e-01
       O  3.25303e-01  1.52881e+00  5.78907e+00
       H -3.68912e-01  2.06226e+00  5.20882e+00
       H  8.22785e-01  2.14042e+00  6.51046e+00
       O -2.23135e+00 -4.66810e-01  4.29817e+00
       H -3.09058e+00 -6.35078e-01  4.80518e+00
       H -1.47329e+00 -8.94173e-01  4.84020e+00
       O -4.60485e+00 -1.16894e+00  1.08872e+01
       H -3.93027e+00 -5.47950e-01  1.10679e+01
       H -5.04296e+00 -1.23749e+00  1.17574e+01
       O -2.10803e+00  1.75489e-01  1.15014e+01
       H -2.00991e+00 -1.17864e-01  1.24311e+01
       H -1.31287e+00 -1.32608e-02  1.11218e+01
       O  8.15703e+00  4.15521e+00  7.25624e-01
       H  7.98254e+00  5.05892e+00  7.57821e-01
       H  7.65358e+00  3.55749e+00  1.37311e+00
       O -3.90423e+00  3.26529e+00 -5.85145e-01
       H -3.13584e+00  3.53348e+00 -8.17925e-02
       H -3.61167e+00  2.35642e+00 -8.46709e-01
       O  1.03950e+01 -2.45163e+00  2.73118e+00