140
# CELL(abcABC):   17.14040    19.79200    30.00000    90.00000    90.00000    90.00000  Step:           0  Bead:      15 positions{angstrom}  cell{angstrom}
       C  4.48688e+00 -9.95820e+00 -1.41868e-01
       C  5.89298e+00 -9.97983e+00 -1.58752e-01
       C  3.73279e+00 -1.12551e+01 -6.75899e-02
       C  6.62148e+00 -1.11682e+01 -2.02941e-01
       C  4.37810e+00 -7.50809e+00 -6.60960e-02
       C  5.90763e+00 -7.56308e+00 -1.86851e-01
       C  3.71760e+00 -8.74634e+00 -3.30619e-02
       C  6.58981e+00 -8.73460e+00 -2.59263e-01
       C  4.46027e+00 -4.99768e+00 -1.74470e-01
       C  5.86612e+00 -4.99048e+00 -1.59344e-01
       C  3.71464e+00 -6.18166e+00 -1.32498e-01
       C  6.61058e+00 -6.26781e+00 -1.74692e-01
       C  4.44044e+00 -2.50988e+00 -1.69715e-01
       C  5.84555e+00 -2.55537e+00 -3.26088e-01
       C  3.77162e+00 -3.75121e+00 -2.67117e-01
       C  6.57771e+00 -3.79560e+00 -2.50960e-01
       C  8.77091e+00 -9.97337e+00 -9.34924e-02
       C  1.01623e+01 -9.91746e+00 -9.04934e-02
       C  8.07954e+00 -1.11912e+01  1.97962e-03
       C  1.08488e+01 -1.12284e+01 -1.22699e-01
       C  8.73754e+00 -7.46717e+00 -1.24843e-01
       C  1.01669e+01 -7.48196e+00 -1.43100e-01
       C  7.96632e+00 -8.69396e+00 -1.67634e-01
       C  1.08882e+01 -8.73560e+00 -2.30230e-01
       C  8.70280e+00 -4.97352e+00 -8.15932e-02
       C  1.01036e+01 -4.98289e+00 -2.12934e-01
       C  8.03171e+00 -6.33083e+00 -1.45469e-01
       C  1.08207e+01 -6.21853e+00 -2.38909e-01
       C  8.67718e+00 -2.48987e+00 -2.64642e-01
       C  1.02076e+01 -2.54548e+00 -2.95013e-01
       C  7.99494e+00 -3.78393e+00 -2.82776e-01
       C  1.08572e+01 -3.77137e+00 -3.86324e-02
       C  1.29555e+01 -9.84287e+00 -1.66024e-01
       C  1.44294e+01 -9.84110e+00 -1.73452e-01
       C  1.22690e+01 -1.11288e+01 -2.46738e-02
       C  1.51272e+01 -1.11111e+01 -2.02749e-01
       C  1.30580e+01 -7.43276e+00  7.21397e-03
       C  1.44682e+01 -7.35158e+00 -6.34416e-02
       C  1.22441e+01 -8.66552e+00 -7.61816e-02
       C  1.51331e+01 -8.73499e+00 -1.57422e-01
       C  1.29808e+01 -4.99315e+00 -8.96863e-02
       C  1.43347e+01 -4.93423e+00 -1.55720e-01
       C  1.22978e+01 -6.23571e+00 -8.56350e-02
       C  1.51653e+01 -6.25640e+00 -1.44000e-01
       C  1.30333e+01 -2.50422e+00 -5.71613e-02
       C  1.44496e+01 -2.48810e+00 -1.36404e-01
       C  1.23202e+01 -3.76753e+00 -8.32469e-02
       C  1.51147e+01 -3.75067e+00 -1.09558e-01
       C  1.27153e-01 -9.98259e+00 -1.95272e-01
       C  1.57605e+00 -1.00016e+01 -5.12119e-02
       C -6.20891e-01 -1.12507e+01 -2.03913e-01
       C  2.34688e+00 -1.12402e+01 -2.48202e-02
       C  1.96456e-01 -7.47471e+00 -5.09692e-02
       C  1.54986e+00 -7.54117e+00 -7.70224e-02
       C -6.36356e-01 -8.65281e+00 -1.92929e-01
       C  2.22624e+00 -8.76927e+00 -8.00640e-02
       C  1.01011e-01 -4.98678e+00 -1.52979e-01
       C  1.55788e+00 -5.02045e+00 -5.79404e-02
       C -5.99169e-01 -6.24125e+00 -1.69540e-01
       C  2.22078e+00 -6.30292e+00  5.89845e-02
       C  3.15658e-02 -2.56602e+00  3.06037e-02
       C  1.54133e+00 -2.58032e+00  5.90276e-02
       C -6.03151e-01 -3.74607e+00 -8.97865e-02
       C  2.28010e+00 -3.77232e+00 -1.02975e-01
       C  4.35745e+00 -3.31123e-02 -1.68161e-02
       C  5.78552e+00 -3.51261e-02  4.78416e-02
       C  3.74985e+00 -1.35375e+00 -1.17178e-01
       C  6.49848e+00 -1.32202e+00 -6.32220e-02
       C  4.41452e+00 -1.73161e+01 -8.19461e-03
       C  5.88928e+00 -1.73986e+01  1.44978e-02
       C  3.69968e+00 -1.86773e+01 -1.50906e-01
       C  6.47393e+00 -1.85632e+01  1.67027e-01
       C  4.44321e+00 -1.49239e+01 -1.24678e-02
       C  5.89577e+00 -1.48767e+01  3.57928e-02
       C  3.69420e+00 -1.61523e+01 -3.54482e-02
       C  6.58531e+00 -1.60642e+01  2.93242e-02
       C  4.51697e+00 -1.24181e+01 -7.22840e-02
       C  5.84743e+00 -1.23490e+01 -1.23262e-01
       C  3.66575e+00 -1.36777e+01 -8.04581e-03
       C  6.61720e+00 -1.37105e+01 -1.34040e-01
       C  8.73629e+00  1.62213e-02 -5.04611e-02
       C  1.01005e+01 -4.27319e-02 -9.43355e-02
       C  8.07628e+00 -1.33055e+00  1.68220e-02
       C  1.08451e+01 -1.34276e+00 -1.31474e-01
       C  8.67043e+00 -1.73620e+01  2.05517e-01
       C  1.01707e+01 -1.73996e+01  2.07631e-01
       C  7.93479e+00 -1.86707e+01  2.25750e-02
       C  1.08773e+01 -1.85172e+01 -8.60703e-02
       C  8.71331e+00 -1.48712e+01  4.16386e-05
       C  1.02008e+01 -1.48625e+01 -1.18782e-01
       C  8.00661e+00 -1.61185e+01  1.55131e-01
       C  1.08431e+01 -1.60824e+01 -1.86957e-02
       C  8.76016e+00 -1.24176e+01  4.59246e-02
       C  1.01368e+01 -1.24038e+01 -3.36380e-02
       C  8.03981e+00 -1.36497e+01  2.44959e-04
       C  1.09153e+01 -1.36572e+01 -3.82117e-03
       C  1.28628e+01 -9.77431e-03 -1.63894e-01
       C  1.42645e+01 -2.04368e-02 -1.94630e-02
       C  1.22381e+01 -1.28422e+00  2.39071e-03
       C  1.51350e+01 -1.23306e+00 -1.33205e-01
       C  1.30336e+01 -1.74290e+01 -1.02428e-01
       C  1.44205e+01 -1.73623e+01 -1.78463e-02
       C  1.22420e+01 -1.85371e+01 -1.39646e-01
       C  1.51019e+01 -1.85895e+01  8.00128e-02
       C  1.30241e+01 -1.49249e+01 -2.22098e-01
       C  1.44457e+01 -1.48882e+01 -1.41784e-01
       C  1.22883e+01 -1.61153e+01 -1.56562e-01
       C  1.52056e+01 -1.61154e+01 -2.45504e-01
       C  1.29468e+01 -1.23865e+01 -7.00698e-02
       C  1.44239e+01 -1.23476e+01 -1.36550e-01
       C  1.23786e+01 -1.36700e+01  5.04741e-03
       C  1.51166e+01 -1.36824e+01 -6.48218e-02
       C  1.55948e-01 -3.72988e-02  3.79963e-02
       C  1.56079e+00 -3.64393e-02 -2.43026e-03
       C -5.72329e-01 -1.29820e+00  1.25180e-03
       C  2.28902e+00 -1.31704e+00 -9.50803e-02
       C  1.45977e-01 -1.73528e+01 -2.39112e-01
       C  1.61052e+00 -1.72930e+01 -1.64630e-01
       C -5.49023e-01 -1.85922e+01 -1.18371e-01
       C  2.32040e+00 -1.86377e+01 -1.51597e-01
       C  3.79488e-02 -1.48481e+01 -1.26492e-01
       C  1.57844e+00 -1.48511e+01 -1.41337e-01
       C -5.55218e-01 -1.61350e+01 -2.59519e-01
       C  2.30569e+00 -1.61146e+01 -1.13463e-01
       C  8.24293e-02 -1.24564e+01 -6.80540e-02
       C  1.62244e+00 -1.24437e+01  2.08133e-02
       C -6.25090e-01 -1.36872e+01 -9.48326e-02
       C  2.25204e+00 -1.35952e+01  2.27494e-02
       H  5.83984e+00 -1.03820e+01  5.50059e+00
       C  5.42964e+00 -9.42853e+00  4.93222e+00
       C  5.88045e+00 -8.06268e+00  5.15071e+00
       H  6.81403e+00 -7.70012e+00  5.48592e+00
       C  5.04835e+00 -7.15416e+00  4.67204e+00
       H  5.41145e+00 -6.23343e+00  4.94174e+00
       C  3.97985e+00 -7.43377e+00  3.86242e+00
       H  3.24203e+00 -6.58039e+00  3.52830e+00
       C  3.76802e+00 -8.74608e+00  3.53562e+00
       H  2.97317e+00 -8.95916e+00  2.90339e+00
       C  4.45817e+00 -9.83651e+00  4.06022e+00
       H  4.29857e+00 -1.10387e+01  3.70340e+00
140
# CELL(abcABC):   17.14040    19.79200    30.00000    90.00000    90.00000    90.00000  Step:         100  Bead:      15 positions{angstrom}  cell{angstrom}
       C  4.36424e+00 -9.95537e+00 -6.39946e-02
       C  5.77576e+00 -9.95436e+00 -7.03131e-02
       C  3.72590e+00 -1.12542e+01 -1.32507e-01
       C  6.47137e+00 -1.12149e+01 -6.39040e-02
       C  4.44793e+00 -7.43346e+00 -1.12132e-02
       C  5.90597e+00 -7.51719e+00 -1.24889e-01
       C  3.66488e+00 -8.71219e+00 -7.61102e-02
       C  6.53141e+00 -8.68725e+00 -1.33561e-01
       C  4.45352e+00 -5.02521e+00  1.33307e-02
       C  5.81932e+00 -5.03777e+00 -1.88066e-01
       C  3.74416e+00 -6.21920e+00 -4.04093e-02
       C  6.53818e+00 -6.27069e+00 -1.56594e-01
       C  4.42022e+00 -2.52482e+00 -9.02840e-02
       C  5.81054e+00 -2.50510e+00 -1.07943e-01
       C  3.68396e+00 -3.78737e+00  1.38750e-02
       C  6.53999e+00 -3.77948e+00 -1.26597e-01
       C  8.68550e+00 -9.90994e+00 -1.29877e-01
       C  1.01088e+01 -9.92833e+00 -2.86497e-02
       C  7.98595e+00 -1.10928e+01 -8.21545e-02
       C  1.08207e+01 -1.11205e+01  5.01914e-02
       C  8.75231e+00 -7.54273e+00 -2.91693e-01
       C  1.01123e+01 -7.56358e+00 -1.24132e-01
       C  7.94101e+00 -8.72858e+00 -1.56358e-01
       C  1.08129e+01 -8.65914e+00 -9.66493e-02
       C  8.70704e+00 -4.98259e+00 -1.59431e-01
       C  1.01887e+01 -4.99171e+00 -1.28938e-01
       C  7.97773e+00 -6.18426e+00 -3.15383e-01
       C  1.08191e+01 -6.22503e+00 -5.39970e-02
       C  8.68638e+00 -2.48386e+00 -2.84932e-02
       C  1.01789e+01 -2.45468e+00 -3.83638e-02
       C  8.00719e+00 -3.73615e+00 -2.61746e-01
       C  1.09334e+01 -3.64824e+00 -1.08016e-01
       C  1.29142e+01 -9.85485e+00 -1.57862e-01
       C  1.43301e+01 -9.95813e+00 -2.83038e-01
       C  1.22434e+01 -1.11563e+01 -2.01086e-01
       C  1.50490e+01 -1.11742e+01 -1.59744e-01
       C  1.29568e+01 -7.54418e+00 -3.43446e-01
       C  1.44874e+01 -7.47985e+00 -4.11456e-01
       C  1.22147e+01 -8.73773e+00 -2.24675e-01
       C  1.51855e+01 -8.73093e+00 -1.92363e-01
       C  1.31729e+01 -4.94759e+00 -1.31395e-01
       C  1.43979e+01 -5.08672e+00 -7.81019e-02
       C  1.22688e+01 -6.24011e+00 -1.91668e-01
       C  1.51123e+01 -6.29747e+00 -2.36943e-01
       C  1.30556e+01 -2.51263e+00 -7.26321e-02
       C  1.44313e+01 -2.50536e+00 -5.64778e-02
       C  1.22911e+01 -3.70841e+00 -1.52895e-01
       C  1.51271e+01 -3.72777e+00 -5.31880e-02
       C  1.33561e-01 -9.95081e+00 -7.70201e-02
       C  1.56701e+00 -9.96179e+00 -4.79271e-02
       C -5.84387e-01 -1.12354e+01 -5.38442e-02
       C  2.29292e+00 -1.12078e+01 -2.18912e-01
       C  1.14602e-01 -7.47559e+00 -2.21730e-01
       C  1.57671e+00 -7.45624e+00 -3.13336e-01
       C -5.58883e-01 -8.77984e+00 -1.56159e-01
       C  2.30541e+00 -8.73299e+00 -1.62315e-01
       C  2.29065e-01 -4.99055e+00 -2.28076e-01
       C  1.57818e+00 -4.99206e+00 -1.82537e-01
       C -5.79552e-01 -6.25864e+00 -3.21327e-01
       C  2.25408e+00 -6.14744e+00 -6.03309e-02
       C  1.69000e-01 -2.56305e+00 -1.85671e-01
       C  1.54584e+00 -2.52840e+00 -2.21851e-02
       C -5.60055e-01 -3.80619e+00 -2.06446e-01
       C  2.24536e+00 -3.76692e+00 -9.23042e-02
       C  4.39920e+00 -1.33279e-01 -8.49289e-02
       C  5.77229e+00 -1.79577e-03 -1.99908e-01
       C  3.68427e+00 -1.34877e+00 -6.53308e-02
       C  6.56653e+00 -1.34661e+00 -1.83138e-01
       C  4.39657e+00 -1.74477e+01 -8.26907e-02
       C  5.84989e+00 -1.73842e+01  3.55918e-02
       C  3.78950e+00 -1.86570e+01 -5.08663e-02
       C  6.61592e+00 -1.85864e+01  2.04744e-02
       C  4.51744e+00 -1.49347e+01 -7.27039e-02
       C  5.82214e+00 -1.49033e+01  1.37910e-01
       C  3.74958e+00 -1.61418e+01 -1.10558e-01
       C  6.53929e+00 -1.61916e+01  1.71886e-01
       C  4.33844e+00 -1.24852e+01 -2.46855e-03
       C  5.82235e+00 -1.24168e+01  2.98712e-02
       C  3.71508e+00 -1.37265e+01 -1.71425e-01
       C  6.53257e+00 -1.36749e+01  1.26425e-01
       C  8.76533e+00 -1.03774e-01  4.98134e-02
       C  1.02196e+01 -8.01450e-03  3.34528e-03
       C  7.98444e+00 -1.16645e+00 -1.22664e-01
       C  1.08966e+01 -1.29270e+00 -2.55748e-02
       C  8.77977e+00 -1.73788e+01 -6.04382e-02
       C  1.02058e+01 -1.73114e+01 -1.05936e-01
       C  8.06460e+00 -1.86557e+01 -2.27400e-02
       C  1.09258e+01 -1.86522e+01 -2.70476e-02
       C  8.62747e+00 -1.48798e+01  8.49562e-02
       C  1.01480e+01 -1.48912e+01  4.06955e-02
       C  8.03527e+00 -1.61515e+01  2.96278e-02
       C  1.08301e+01 -1.61375e+01 -9.86412e-02
       C  8.62661e+00 -1.24016e+01 -5.61174e-02
       C  1.00706e+01 -1.24159e+01 -3.78184e-02
       C  7.97761e+00 -1.35963e+01  7.56913e-02
       C  1.08894e+01 -1.36191e+01  7.66641e-02
       C  1.30455e+01 -8.55928e-04 -1.17159e-01
       C  1.43611e+01 -7.47315e-02  3.76390e-02
       C  1.23492e+01 -1.21324e+00 -1.52389e-01
       C  1.51422e+01 -1.36506e+00  7.20333e-02
       C  1.30723e+01 -1.73915e+01  2.82467e-02
       C  1.44403e+01 -1.73187e+01 -2.24124e-01
       C  1.23603e+01 -1.85362e+01  3.03518e-02
       C  1.51381e+01 -1.85876e+01 -1.03492e-01
       C  1.29990e+01 -1.49388e+01  2.44608e-02
       C  1.43739e+01 -1.49527e+01 -1.29490e-01
       C  1.22552e+01 -1.61797e+01  5.82212e-02
       C  1.51567e+01 -1.60919e+01 -1.23298e-01
       C  1.29830e+01 -1.24145e+01 -2.30651e-01
       C  1.44727e+01 -1.24293e+01 -7.15912e-02
       C  1.23031e+01 -1.36833e+01 -9.72114e-02
       C  1.51598e+01 -1.36301e+01 -1.24888e-01
       C  1.52609e-01 -7.67466e-02 -1.73578e-02
       C  1.61756e+00 -1.06934e-01 -5.48607e-02
       C -5.24013e-01 -1.28902e+00 -7.59619e-02
       C  2.25751e+00 -1.31130e+00 -6.59060e-02
       C  1.95691e-01 -1.73756e+01 -1.70304e-01
       C  1.58788e+00 -1.74574e+01  4.55833e-02
       C -5.45429e-01 -1.85726e+01 -1.03777e-01
       C  2.27723e+00 -1.86040e+01 -1.87442e-02
       C  1.44255e-01 -1.48899e+01 -2.04824e-01
       C  1.63998e+00 -1.49489e+01 -1.61497e-01
       C -5.43935e-01 -1.61124e+01 -1.06338e-01
       C  2.35721e+00 -1.61892e+01 -1.26659e-01
       C  1.72968e-01 -1.23836e+01 -1.41016e-01
       C  1.59207e+00 -1.25072e+01 -1.23139e-01
       C -5.30007e-01 -1.36628e+01 -1.30398e-01
       C  2.32155e+00 -1.37592e+01 -1.40130e-01
       H  5.89970e+00 -1.03752e+01  5.28685e+00
       C  5.30745e+00 -9.46310e+00  4.99896e+00
       C  5.87911e+00 -8.20850e+00  4.97767e+00
       H  6.78550e+00 -7.98235e+00  5.50046e+00
       C  5.16349e+00 -7.13908e+00  4.47080e+00
       H  5.44035e+00 -6.15261e+00  4.52075e+00
       C  3.92298e+00 -7.32269e+00  3.97775e+00
       H  3.44333e+00 -6.39164e+00  3.96568e+00
       C  3.56385e+00 -8.61379e+00  3.69744e+00
       H  2.58438e+00 -8.76336e+00  3.05861e+00
       C  4.21599e+00 -9.73473e+00  4.18881e+00
       H  3.91302e+00 -1.08319e+01  4.15424e+00
