140
# CELL(abcABC):   17.14040    19.79200    30.00000    90.00000    90.00000    90.00000  Step:           0  Bead:      13 positions{angstrom}  cell{angstrom}
       C  4.42139e+00 -9.99002e+00 -1.75989e-01
       C  5.85501e+00 -9.97069e+00 -1.27331e-01
       C  3.71188e+00 -1.12654e+01 -6.55299e-02
       C  6.65277e+00 -1.11933e+01 -2.24631e-01
       C  4.44065e+00 -7.49707e+00 -5.39005e-02
       C  5.88756e+00 -7.57947e+00 -1.89289e-01
       C  3.69214e+00 -8.72148e+00 -1.64869e-02
       C  6.57413e+00 -8.74046e+00 -2.63896e-01
       C  4.46124e+00 -4.96883e+00 -1.65524e-01
       C  5.86560e+00 -4.94610e+00 -9.83435e-02
       C  3.72124e+00 -6.19365e+00 -9.88421e-02
       C  6.59643e+00 -6.29392e+00 -1.83152e-01
       C  4.46950e+00 -2.49514e+00 -1.51723e-01
       C  5.85313e+00 -2.54748e+00 -3.33515e-01
       C  3.76841e+00 -3.76289e+00 -2.94541e-01
       C  6.55698e+00 -3.81187e+00 -2.69630e-01
       C  8.79676e+00 -9.94021e+00 -7.32901e-02
       C  1.02246e+01 -9.91444e+00 -6.57840e-02
       C  8.04621e+00 -1.11674e+01 -2.00523e-02
       C  1.08304e+01 -1.12424e+01 -1.33256e-01
       C  8.79195e+00 -7.45379e+00 -1.87283e-01
       C  1.01992e+01 -7.43014e+00 -1.49717e-01
       C  7.97437e+00 -8.69035e+00 -1.54437e-01
       C  1.08390e+01 -8.73942e+00 -2.33796e-01
       C  8.70825e+00 -4.98296e+00 -2.22642e-02
       C  1.01050e+01 -4.99648e+00 -1.92352e-01
       C  8.05671e+00 -6.29717e+00 -1.45289e-01
       C  1.08678e+01 -6.22928e+00 -2.05340e-01
       C  8.64705e+00 -2.46479e+00 -2.82295e-01
       C  1.01264e+01 -2.55368e+00 -2.59691e-01
       C  7.99679e+00 -3.77186e+00 -2.78133e-01
       C  1.08329e+01 -3.79512e+00 -1.94990e-02
       C  1.29893e+01 -9.87877e+00 -1.35659e-01
       C  1.44223e+01 -9.80911e+00 -1.95390e-01
       C  1.22900e+01 -1.11593e+01  7.31567e-03
       C  1.51576e+01 -1.11429e+01 -2.05913e-01
       C  1.30300e+01 -7.44846e+00  2.40603e-02
       C  1.44562e+01 -7.39176e+00 -6.53359e-02
       C  1.22346e+01 -8.63072e+00 -1.41613e-01
       C  1.51385e+01 -8.73060e+00 -1.67889e-01
       C  1.29857e+01 -5.03985e+00 -9.82435e-02
       C  1.43537e+01 -4.95786e+00 -1.02112e-01
       C  1.22924e+01 -6.25181e+00 -1.01052e-01
       C  1.51310e+01 -6.29494e+00 -1.53853e-01
       C  1.30306e+01 -2.52007e+00 -9.86851e-02
       C  1.44369e+01 -2.50482e+00 -9.00816e-02
       C  1.22595e+01 -3.77776e+00 -9.19340e-02
       C  1.51463e+01 -3.71001e+00 -1.09935e-01
       C  1.40127e-01 -9.96510e+00 -1.82757e-01
       C  1.59871e+00 -1.00350e+01 -8.49009e-02
       C -6.47774e-01 -1.12609e+01 -1.85249e-01
       C  2.35292e+00 -1.12604e+01 -5.88156e-02
       C  1.72605e-01 -7.53242e+00 -1.06605e-02
       C  1.57979e+00 -7.54049e+00 -9.48377e-02
       C -6.23628e-01 -8.63526e+00 -2.04762e-01
       C  2.23229e+00 -8.77091e+00 -7.27919e-02
       C  9.68165e-02 -5.00955e+00 -1.25847e-01
       C  1.56212e+00 -4.94009e+00 -3.41349e-02
       C -6.00812e-01 -6.29355e+00 -1.58364e-01
       C  2.28667e+00 -6.26656e+00  4.35832e-02
       C  6.76365e-02 -2.54468e+00  4.06535e-02
       C  1.53549e+00 -2.59812e+00  8.24515e-02
       C -5.82909e-01 -3.76200e+00 -8.54244e-02
       C  2.28117e+00 -3.73877e+00 -9.86083e-02
       C  4.40561e+00 -8.88375e-03 -2.18930e-02
       C  5.74730e+00 -6.27453e-02  6.10865e-02
       C  3.74760e+00 -1.34941e+00 -5.79637e-02
       C  6.54594e+00 -1.32859e+00 -8.10449e-02
       C  4.41575e+00 -1.73114e+01 -6.14630e-04
       C  5.90940e+00 -1.74054e+01 -3.11971e-02
       C  3.67440e+00 -1.86322e+01 -1.98774e-01
       C  6.40471e+00 -1.85292e+01  1.80337e-01
       C  4.44428e+00 -1.49218e+01 -2.80364e-02
       C  5.88126e+00 -1.48914e+01  4.87864e-02
       C  3.75229e+00 -1.60928e+01 -6.74485e-02
       C  6.56610e+00 -1.60905e+01  5.29148e-02
       C  4.44578e+00 -1.24449e+01 -7.25438e-02
       C  5.83584e+00 -1.23819e+01 -1.27277e-01
       C  3.65808e+00 -1.36478e+01 -1.30948e-02
       C  6.57626e+00 -1.37394e+01 -1.35379e-01
       C  8.70116e+00 -8.35415e-03 -4.93988e-02
       C  1.00948e+01 -7.29153e-03 -1.04908e-01
       C  8.04429e+00 -1.30376e+00  4.07152e-02
       C  1.08466e+01 -1.33762e+00 -1.61411e-01
       C  8.62576e+00 -1.73728e+01  1.86448e-01
       C  1.01906e+01 -1.73924e+01  2.22220e-01
       C  7.91353e+00 -1.86410e+01  1.61725e-02
       C  1.08975e+01 -1.85208e+01 -9.64970e-02
       C  8.69994e+00 -1.48595e+01 -3.06652e-02
       C  1.02152e+01 -1.48859e+01 -1.09466e-01
       C  7.94883e+00 -1.61390e+01  1.85954e-01
       C  1.08185e+01 -1.60825e+01 -1.91188e-02
       C  8.72455e+00 -1.24392e+01  4.74808e-02
       C  1.02004e+01 -1.23773e+01 -4.24467e-02
       C  8.06828e+00 -1.36402e+01 -2.45852e-02
       C  1.08772e+01 -1.36701e+01 -1.35673e-02
       C  1.28442e+01 -1.39252e-02 -1.99651e-01
       C  1.43168e+01 -5.08347e-02 -2.28286e-02
       C  1.22209e+01 -1.28168e+00 -1.56678e-02
       C  1.50963e+01 -1.23913e+00 -9.59598e-02
       C  1.30238e+01 -1.74071e+01 -1.07856e-01
       C  1.44471e+01 -1.73994e+01 -6.90538e-02
       C  1.22415e+01 -1.85453e+01 -1.44561e-01
       C  1.50974e+01 -1.85654e+01  9.13914e-02
       C  1.29845e+01 -1.49188e+01 -2.19326e-01
       C  1.44223e+01 -1.49275e+01 -1.83292e-01
       C  1.22481e+01 -1.61058e+01 -1.06466e-01
       C  1.51524e+01 -1.61009e+01 -2.63769e-01
       C  1.29410e+01 -1.23870e+01 -5.07055e-02
       C  1.43984e+01 -1.23429e+01 -1.66764e-01
       C  1.23629e+01 -1.36697e+01 -1.92328e-02
       C  1.50785e+01 -1.36736e+01 -8.70981e-02
       C  1.54310e-01 -4.15685e-02  5.62537e-02
       C  1.51801e+00 -2.56308e-02  2.44168e-02
       C -5.74643e-01 -1.26713e+00 -3.50356e-02
       C  2.29499e+00 -1.26242e+00 -3.27853e-02
       C  9.61164e-02 -1.73822e+01 -2.47551e-01
       C  1.60605e+00 -1.72895e+01 -1.45343e-01
       C -5.27459e-01 -1.85772e+01 -1.52902e-01
       C  2.33920e+00 -1.86565e+01 -1.48798e-01
       C  1.00707e-02 -1.48976e+01 -7.68637e-02
       C  1.49965e+00 -1.48786e+01 -1.28206e-01
       C -5.72278e-01 -1.61082e+01 -2.39651e-01
       C  2.28633e+00 -1.61389e+01 -1.14022e-01
       C  9.86538e-02 -1.24391e+01 -7.84137e-02
       C  1.61641e+00 -1.24484e+01  1.89155e-02
       C -6.19251e-01 -1.37011e+01 -7.54567e-02
       C  2.21283e+00 -1.36224e+01  4.19712e-02
       H  5.76578e+00 -1.03000e+01  5.70340e+00
       C  5.43719e+00 -9.45374e+00  4.91799e+00
       C  5.90945e+00 -8.08103e+00  5.15771e+00
       H  6.84116e+00 -7.75304e+00  5.51178e+00
       C  5.02824e+00 -7.14355e+00  4.71585e+00
       H  5.31816e+00 -6.22031e+00  4.97962e+00
       C  3.98992e+00 -7.41261e+00  3.85678e+00
       H  3.29014e+00 -6.69847e+00  3.59872e+00
       C  3.78322e+00 -8.76491e+00  3.52646e+00
       H  2.91546e+00 -8.90567e+00  2.93509e+00
       C  4.45913e+00 -9.81718e+00  4.08877e+00
       H  4.23532e+00 -1.09025e+01  3.77362e+00
140
# CELL(abcABC):   17.14040    19.79200    30.00000    90.00000    90.00000    90.00000  Step:         100  Bead:      13 positions{angstrom}  cell{angstrom}
       C  4.33240e+00 -9.95526e+00 -6.94605e-02
       C  5.76633e+00 -9.90833e+00 -2.77441e-02
       C  3.78469e+00 -1.12447e+01 -1.22684e-01
       C  6.51156e+00 -1.11722e+01 -1.12534e-01
       C  4.44474e+00 -7.39771e+00 -1.50424e-02
       C  5.86914e+00 -7.47495e+00 -1.53979e-01
       C  3.69116e+00 -8.67954e+00 -5.02016e-02
       C  6.51234e+00 -8.70868e+00 -1.38589e-01
       C  4.44233e+00 -5.02659e+00  4.16526e-03
       C  5.82535e+00 -5.05347e+00 -1.98056e-01
       C  3.73026e+00 -6.17638e+00  2.08942e-03
       C  6.48147e+00 -6.31815e+00 -1.34356e-01
       C  4.44561e+00 -2.50461e+00 -1.17106e-01
       C  5.85519e+00 -2.51545e+00 -7.73417e-02
       C  3.67401e+00 -3.76342e+00  3.56602e-02
       C  6.53730e+00 -3.79109e+00 -1.86965e-01
       C  8.72600e+00 -9.91683e+00 -1.36054e-01
       C  1.00816e+01 -9.87459e+00  1.54467e-02
       C  7.99298e+00 -1.11395e+01 -6.85695e-02
       C  1.08095e+01 -1.11676e+01  4.83861e-02
       C  8.69999e+00 -7.55661e+00 -2.60617e-01
       C  1.01557e+01 -7.48998e+00 -1.00060e-01
       C  7.97952e+00 -8.71624e+00 -1.70304e-01
       C  1.08457e+01 -8.66180e+00 -6.91202e-02
       C  8.70021e+00 -5.00734e+00 -1.84028e-01
       C  1.01942e+01 -4.94373e+00 -1.03312e-01
       C  7.97416e+00 -6.19937e+00 -3.35603e-01
       C  1.08613e+01 -6.25711e+00 -7.30807e-02
       C  8.69760e+00 -2.47784e+00 -3.95238e-02
       C  1.01796e+01 -2.42834e+00  3.59415e-05
       C  7.95970e+00 -3.71987e+00 -2.15701e-01
       C  1.08887e+01 -3.72173e+00 -7.52753e-02
       C  1.29479e+01 -9.90245e+00 -1.48560e-01
       C  1.42952e+01 -9.94420e+00 -2.91252e-01
       C  1.22432e+01 -1.11789e+01 -1.98565e-01
       C  1.50728e+01 -1.11611e+01 -1.48402e-01
       C  1.29898e+01 -7.56614e+00 -3.68008e-01
       C  1.44182e+01 -7.43134e+00 -4.18695e-01
       C  1.21830e+01 -8.77405e+00 -2.48471e-01
       C  1.51350e+01 -8.75674e+00 -1.97490e-01
       C  1.31049e+01 -4.95362e+00 -1.71500e-01
       C  1.44478e+01 -5.09311e+00 -3.93339e-02
       C  1.22669e+01 -6.24722e+00 -2.10190e-01
       C  1.51670e+01 -6.23854e+00 -1.98707e-01
       C  1.30421e+01 -2.47960e+00 -3.03111e-02
       C  1.44233e+01 -2.49062e+00 -1.81114e-02
       C  1.22358e+01 -3.67573e+00 -1.76673e-01
       C  1.51340e+01 -3.66894e+00 -7.79446e-02
       C  1.40437e-01 -9.97788e+00 -6.11166e-02
       C  1.55052e+00 -9.95446e+00 -3.94240e-02
       C -5.70777e-01 -1.12135e+01 -4.44319e-02
       C  2.27537e+00 -1.11791e+01 -1.95740e-01
       C  1.16718e-01 -7.46130e+00 -2.28610e-01
       C  1.57152e+00 -7.45882e+00 -2.37489e-01
       C -5.30068e-01 -8.75376e+00 -1.65314e-01
       C  2.27186e+00 -8.77177e+00 -1.71201e-01
       C  2.26068e-01 -4.95825e+00 -1.98931e-01
       C  1.56796e+00 -4.96286e+00 -1.93603e-01
       C -5.68969e-01 -6.26657e+00 -3.32308e-01
       C  2.24318e+00 -6.16088e+00 -7.62547e-02
       C  2.10108e-01 -2.55820e+00 -1.70202e-01
       C  1.56162e+00 -2.49941e+00 -3.99303e-02
       C -5.65885e-01 -3.80967e+00 -2.19753e-01
       C  2.23544e+00 -3.73914e+00 -1.23078e-01
       C  4.41921e+00 -6.25076e-02 -7.79643e-02
       C  5.79172e+00 -2.55963e-02 -1.97643e-01
       C  3.65477e+00 -1.38020e+00 -7.26565e-02
       C  6.58229e+00 -1.36105e+00 -1.85522e-01
       C  4.41564e+00 -1.74357e+01 -2.64211e-02
       C  5.86974e+00 -1.74034e+01  2.22915e-02
       C  3.76132e+00 -1.86862e+01 -4.53508e-02
       C  6.55500e+00 -1.86432e+01 -1.34433e-02
       C  4.50446e+00 -1.49242e+01 -4.08632e-02
       C  5.88257e+00 -1.49254e+01  1.38686e-01
       C  3.78005e+00 -1.61265e+01 -1.48626e-01
       C  6.55257e+00 -1.62308e+01  1.68432e-01
       C  4.34940e+00 -1.24741e+01 -2.79765e-02
       C  5.80694e+00 -1.24618e+01  1.88415e-02
       C  3.73521e+00 -1.37585e+01 -1.42010e-01
       C  6.52484e+00 -1.37027e+01  6.08382e-02
       C  8.72390e+00 -6.56258e-02  1.38622e-02
       C  1.02122e+01  2.58832e-03 -3.34896e-03
       C  7.99172e+00 -1.20560e+00 -1.01949e-01
       C  1.09222e+01 -1.30363e+00 -2.86839e-05
       C  8.77564e+00 -1.73570e+01 -4.27262e-02
       C  1.02221e+01 -1.73003e+01 -5.94342e-02
       C  8.05333e+00 -1.86196e+01  5.35853e-02
       C  1.08686e+01 -1.86509e+01 -1.78322e-02
       C  8.65295e+00 -1.49395e+01  1.20542e-01
       C  1.01363e+01 -1.48738e+01  1.09426e-02
       C  8.02905e+00 -1.61589e+01  1.17286e-02
       C  1.08556e+01 -1.61242e+01 -1.36149e-01
       C  8.68322e+00 -1.23852e+01 -4.43410e-02
       C  1.01214e+01 -1.24468e+01 -5.09622e-02
       C  7.97036e+00 -1.35906e+01  1.07136e-01
       C  1.08859e+01 -1.36516e+01  1.03925e-01
       C  1.30098e+01 -2.11913e-02 -8.86851e-02
       C  1.43992e+01 -1.06757e-01  6.30389e-02
       C  1.23398e+01 -1.21180e+00 -1.15480e-01
       C  1.51404e+01 -1.35800e+00  1.32073e-01
       C  1.30596e+01 -1.73706e+01  3.51274e-02
       C  1.44557e+01 -1.73856e+01 -1.64306e-01
       C  1.23289e+01 -1.85435e+01  2.39585e-02
       C  1.51254e+01 -1.85656e+01 -1.04848e-01
       C  1.30213e+01 -1.49542e+01  3.82989e-02
       C  1.44179e+01 -1.49381e+01 -1.21507e-01
       C  1.22427e+01 -1.61670e+01  1.62411e-02
       C  1.51601e+01 -1.61034e+01 -1.31963e-01
       C  1.29811e+01 -1.24139e+01 -2.18094e-01
       C  1.44765e+01 -1.24496e+01 -5.85847e-02
       C  1.23350e+01 -1.36558e+01 -7.95140e-02
       C  1.51325e+01 -1.36116e+01 -1.35080e-01
       C  1.65053e-01 -3.73137e-02 -3.74437e-02
       C  1.62529e+00 -5.30977e-02 -3.96041e-02
       C -5.00777e-01 -1.32769e+00 -1.03685e-01
       C  2.26196e+00 -1.35639e+00 -6.64300e-02
       C  2.32868e-01 -1.73617e+01 -1.67396e-01
       C  1.57955e+00 -1.74182e+01  2.19978e-02
       C -5.15200e-01 -1.86158e+01 -1.13521e-01
       C  2.26415e+00 -1.86900e+01  7.33776e-03
       C  1.23343e-01 -1.48485e+01 -1.99284e-01
       C  1.63073e+00 -1.49386e+01 -1.83362e-01
       C -5.53479e-01 -1.60845e+01 -1.03824e-01
       C  2.35640e+00 -1.62045e+01 -1.41248e-01
       C  1.98624e-01 -1.24039e+01 -1.10949e-01
       C  1.56482e+00 -1.25197e+01 -1.26204e-01
       C -5.49936e-01 -1.36593e+01 -1.54196e-01
       C  2.31102e+00 -1.37272e+01 -1.29513e-01
       H  5.94393e+00 -1.04410e+01  5.33306e+00
       C  5.29239e+00 -9.48517e+00  5.01184e+00
       C  5.88191e+00 -8.24110e+00  5.05447e+00
       H  6.87506e+00 -8.00713e+00  5.52705e+00
       C  5.15329e+00 -7.12511e+00  4.52970e+00
       H  5.42783e+00 -6.25032e+00  4.57200e+00
       C  3.93969e+00 -7.37237e+00  3.95851e+00
       H  3.36728e+00 -6.47349e+00  3.98751e+00
       C  3.56942e+00 -8.64855e+00  3.69236e+00
       H  2.58807e+00 -8.73215e+00  3.08717e+00
       C  4.18618e+00 -9.69638e+00  4.21797e+00
       H  3.81585e+00 -1.07684e+01  4.03913e+00
