140
# CELL(abcABC):   17.14040    19.79200    30.00000    90.00000    90.00000    90.00000  Step:           0  Bead:      24 positions{angstrom}  cell{angstrom}
       C  4.45164e+00 -9.99321e+00 -8.45498e-02
       C  5.86412e+00 -1.00049e+01 -9.41536e-02
       C  3.72026e+00 -1.12115e+01 -1.57662e-02
       C  6.58523e+00 -1.12121e+01 -2.66243e-01
       C  4.40905e+00 -7.48918e+00 -7.51124e-02
       C  5.88040e+00 -7.57452e+00 -2.09074e-01
       C  3.68741e+00 -8.67327e+00  4.39088e-02
       C  6.55518e+00 -8.84860e+00 -2.27061e-01
       C  4.44818e+00 -5.04460e+00 -1.11227e-01
       C  5.81046e+00 -5.03171e+00 -1.22983e-01
       C  3.70281e+00 -6.26774e+00 -9.48499e-02
       C  6.64673e+00 -6.31175e+00 -1.04501e-01
       C  4.39064e+00 -2.52498e+00 -1.15187e-01
       C  5.86934e+00 -2.50302e+00 -2.05084e-01
       C  3.68533e+00 -3.78577e+00 -2.69569e-01
       C  6.61184e+00 -3.71282e+00 -1.93458e-01
       C  8.73182e+00 -9.99743e+00 -1.31576e-01
       C  1.01689e+01 -9.91971e+00 -1.14581e-01
       C  8.07003e+00 -1.12032e+01  5.17699e-02
       C  1.09381e+01 -1.10939e+01 -6.49074e-02
       C  8.72776e+00 -7.52612e+00 -1.18825e-01
       C  1.02004e+01 -7.46838e+00 -1.52468e-01
       C  8.00303e+00 -8.74161e+00 -1.60266e-01
       C  1.08495e+01 -8.71985e+00 -2.54441e-01
       C  8.73087e+00 -4.95668e+00 -8.82596e-02
       C  1.01730e+01 -5.00140e+00 -1.58048e-01
       C  8.00152e+00 -6.23841e+00 -1.18658e-01
       C  1.08297e+01 -6.21000e+00 -2.57337e-01
       C  8.71965e+00 -2.60779e+00 -1.87258e-01
       C  1.02026e+01 -2.49466e+00 -3.01752e-01
       C  7.95257e+00 -3.77358e+00 -2.61921e-01
       C  1.08671e+01 -3.79687e+00 -6.00642e-02
       C  1.29518e+01 -9.89330e+00 -1.12497e-01
       C  1.43376e+01 -9.90866e+00 -2.03592e-01
       C  1.22563e+01 -1.11569e+01  3.44212e-02
       C  1.50910e+01 -1.11477e+01 -2.16902e-01
       C  1.30525e+01 -7.44345e+00 -6.77609e-02
       C  1.43823e+01 -7.41904e+00 -1.19959e-01
       C  1.23288e+01 -8.68327e+00 -1.47899e-01
       C  1.50763e+01 -8.70134e+00 -9.80253e-02
       C  1.30274e+01 -4.91774e+00 -7.72509e-02
       C  1.44692e+01 -5.06748e+00 -1.68544e-01
       C  1.22765e+01 -6.22630e+00 -1.52070e-01
       C  1.52002e+01 -6.22573e+00 -1.79569e-01
       C  1.30027e+01 -2.58687e+00  1.36593e-02
       C  1.44184e+01 -2.46430e+00 -1.48324e-01
       C  1.23208e+01 -3.73619e+00 -1.80347e-01
       C  1.50997e+01 -3.79002e+00 -8.49057e-02
       C  1.09106e-01 -9.95933e+00 -2.24146e-01
       C  1.50455e+00 -1.00217e+01 -3.18912e-02
       C -5.34565e-01 -1.13051e+01 -1.99372e-01
       C  2.27311e+00 -1.12813e+01 -4.73552e-02
       C  2.10934e-01 -7.46646e+00 -1.31611e-01
       C  1.61985e+00 -7.52635e+00 -4.65342e-02
       C -6.04289e-01 -8.74537e+00 -1.57476e-01
       C  2.18804e+00 -8.77089e+00 -5.45537e-02
       C  1.77957e-01 -4.97694e+00 -1.91673e-02
       C  1.63701e+00 -5.06438e+00 -2.07068e-02
       C -5.92046e-01 -6.28978e+00 -1.13792e-01
       C  2.28607e+00 -6.27187e+00 -4.06770e-02
       C  1.57120e-01 -2.55979e+00  2.53294e-02
       C  1.57525e+00 -2.49518e+00  9.00118e-02
       C -5.97865e-01 -3.75650e+00 -9.52266e-02
       C  2.28085e+00 -3.76861e+00 -1.46172e-01
       C  4.42131e+00 -1.15140e-01 -8.29658e-02
       C  5.87643e+00 -3.32064e-02  7.46510e-02
       C  3.70924e+00 -1.32287e+00 -9.21884e-02
       C  6.53154e+00 -1.26445e+00 -7.23345e-02
       C  4.39143e+00 -1.73213e+01 -5.08309e-02
       C  5.83799e+00 -1.73954e+01 -1.59115e-02
       C  3.66799e+00 -1.85563e+01 -2.25214e-01
       C  6.54368e+00 -1.86493e+01  1.50032e-01
       C  4.44496e+00 -1.48313e+01  2.47100e-02
       C  5.83737e+00 -1.49023e+01 -2.14314e-02
       C  3.76697e+00 -1.62002e+01 -1.08021e-02
       C  6.61791e+00 -1.61405e+01  1.65155e-02
       C  4.41753e+00 -1.24369e+01 -9.34388e-02
       C  5.86047e+00 -1.23491e+01 -1.97200e-01
       C  3.74580e+00 -1.36203e+01 -5.50077e-02
       C  6.55909e+00 -1.36465e+01 -1.53240e-01
       C  8.74257e+00 -6.78327e-02 -1.59713e-02
       C  1.02021e+01 -8.21489e-02 -1.00277e-01
       C  8.07337e+00 -1.29308e+00 -5.94920e-02
       C  1.08265e+01 -1.28087e+00 -1.01944e-01
       C  8.68076e+00 -1.74423e+01  2.78050e-01
       C  1.00874e+01 -1.73472e+01  2.11645e-01
       C  7.99015e+00 -1.86674e+01 -2.06465e-02
       C  1.07503e+01 -1.86606e+01 -4.27687e-02
       C  8.71467e+00 -1.48612e+01  3.45896e-02
       C  1.01139e+01 -1.48436e+01 -3.77534e-03
       C  7.99702e+00 -1.61143e+01  1.18371e-01
       C  1.08407e+01 -1.60976e+01 -4.91770e-02
       C  8.80294e+00 -1.24118e+01  7.95419e-02
       C  1.01434e+01 -1.23515e+01 -5.42703e-02
       C  8.02458e+00 -1.36645e+01  2.08256e-02
       C  1.09650e+01 -1.36282e+01 -2.54658e-03
       C  1.30001e+01 -3.01172e-02 -2.12403e-01
       C  1.43360e+01  1.03000e-03  3.78680e-02
       C  1.22953e+01 -1.30162e+00  3.39490e-02
       C  1.51588e+01 -1.23352e+00 -7.90299e-02
       C  1.29758e+01 -1.74117e+01 -1.50010e-01
       C  1.43987e+01 -1.72885e+01 -3.80429e-02
       C  1.22218e+01 -1.86486e+01 -2.04074e-01
       C  1.51132e+01 -1.86537e+01  3.61156e-02
       C  1.29844e+01 -1.48881e+01 -1.87492e-01
       C  1.44372e+01 -1.48687e+01 -9.08402e-02
       C  1.22327e+01 -1.61878e+01 -2.18636e-01
       C  1.51572e+01 -1.61808e+01 -1.54503e-01
       C  1.29798e+01 -1.23909e+01  5.01025e-02
       C  1.44932e+01 -1.23831e+01 -9.94296e-02
       C  1.23419e+01 -1.36422e+01 -1.11719e-01
       C  1.50989e+01 -1.36110e+01 -7.99110e-02
       C  1.26173e-01 -5.17684e-02 -3.95262e-02
       C  1.59488e+00 -1.26130e-01  2.02181e-02
       C -5.81403e-01 -1.25749e+00  2.86393e-02
       C  2.32113e+00 -1.32602e+00 -8.65877e-02
       C  2.00041e-01 -1.73403e+01 -2.22125e-01
       C  1.54745e+00 -1.73308e+01 -1.54272e-01
       C -5.90192e-01 -1.85711e+01 -5.66462e-02
       C  2.26912e+00 -1.85797e+01 -1.62705e-01
       C  9.49385e-02 -1.48772e+01 -1.59018e-01
       C  1.55647e+00 -1.48622e+01 -1.43432e-01
       C -5.52876e-01 -1.61300e+01 -1.97085e-01
       C  2.26325e+00 -1.60865e+01 -2.10216e-01
       C  1.50408e-01 -1.24565e+01 -7.88309e-03
       C  1.60592e+00 -1.24136e+01  5.73999e-02
       C -6.10368e-01 -1.36748e+01 -6.65055e-02
       C  2.23865e+00 -1.37005e+01  8.39413e-02
       H  5.92876e+00 -1.02470e+01  5.68718e+00
       C  5.45422e+00 -9.42745e+00  5.01680e+00
       C  5.81310e+00 -8.11154e+00  5.14734e+00
       H  6.85397e+00 -7.90491e+00  5.59200e+00
       C  5.06880e+00 -7.12437e+00  4.64964e+00
       H  5.27353e+00 -6.01184e+00  4.88833e+00
       C  3.96750e+00 -7.40085e+00  3.89808e+00
       H  3.28930e+00 -6.48968e+00  3.43342e+00
       C  3.74958e+00 -8.74061e+00  3.48471e+00
       H  2.98932e+00 -8.88881e+00  2.65984e+00
       C  4.50767e+00 -9.80769e+00  4.04818e+00
       H  4.15439e+00 -1.08268e+01  3.69101e+00
140
# CELL(abcABC):   17.14040    19.79200    30.00000    90.00000    90.00000    90.00000  Step:         100  Bead:      24 positions{angstrom}  cell{angstrom}
       C  4.40228e+00 -9.99302e+00 -8.18078e-02
       C  5.81441e+00 -9.93811e+00 -2.80050e-02
       C  3.73783e+00 -1.11925e+01 -1.16173e-01
       C  6.46314e+00 -1.11853e+01 -9.23639e-02
       C  4.37562e+00 -7.49467e+00  4.05544e-02
       C  5.75927e+00 -7.49089e+00 -1.02294e-01
       C  3.66006e+00 -8.75910e+00 -6.64978e-02
       C  6.57665e+00 -8.68713e+00 -5.94519e-02
       C  4.43185e+00 -5.06545e+00  3.40099e-02
       C  5.80634e+00 -5.05137e+00 -1.91336e-01
       C  3.69563e+00 -6.19548e+00 -2.29324e-02
       C  6.62412e+00 -6.24918e+00 -1.88931e-01
       C  4.51063e+00 -2.55904e+00 -4.58716e-02
       C  5.84520e+00 -2.57874e+00 -2.33914e-02
       C  3.78742e+00 -3.79323e+00 -5.05367e-02
       C  6.56294e+00 -3.76815e+00 -7.25916e-02
       C  8.70453e+00 -9.85911e+00 -5.60738e-02
       C  1.01166e+01 -9.91529e+00  6.78416e-03
       C  8.01105e+00 -1.11921e+01 -1.15490e-01
       C  1.08486e+01 -1.10807e+01  7.11822e-02
       C  8.68822e+00 -7.45051e+00 -2.93887e-01
       C  1.01295e+01 -7.52630e+00 -1.33879e-01
       C  7.96044e+00 -8.73272e+00 -1.08031e-01
       C  1.07873e+01 -8.67174e+00 -7.71121e-02
       C  8.63536e+00 -4.93051e+00 -1.01392e-01
       C  1.01494e+01 -4.89026e+00 -7.21003e-02
       C  8.03613e+00 -6.20071e+00 -2.40064e-01
       C  1.08411e+01 -6.20740e+00 -1.20568e-01
       C  8.73221e+00 -2.50504e+00 -7.76802e-02
       C  1.01301e+01 -2.43991e+00 -9.50037e-02
       C  8.05493e+00 -3.69540e+00 -1.25491e-01
       C  1.08537e+01 -3.71967e+00 -1.05314e-01
       C  1.29511e+01 -9.90326e+00 -1.51953e-01
       C  1.44139e+01 -9.98218e+00 -1.95490e-01
       C  1.23030e+01 -1.12014e+01 -1.25013e-01
       C  1.50790e+01 -1.12322e+01 -1.16591e-01
       C  1.29407e+01 -7.47705e+00 -3.03212e-01
       C  1.44767e+01 -7.49044e+00 -3.89494e-01
       C  1.22142e+01 -8.74337e+00 -2.53562e-01
       C  1.51263e+01 -8.63572e+00 -1.54412e-01
       C  1.29142e+01 -4.97217e+00 -1.06836e-01
       C  1.44381e+01 -5.02234e+00 -3.00896e-02
       C  1.22204e+01 -6.20714e+00 -2.01658e-01
       C  1.51191e+01 -6.32540e+00 -2.29280e-01
       C  1.30648e+01 -2.49551e+00 -5.28391e-02
       C  1.45063e+01 -2.48007e+00 -2.14717e-02
       C  1.23297e+01 -3.74010e+00 -1.35177e-01
       C  1.51639e+01 -3.82790e+00 -1.25452e-02
       C  1.10794e-01 -9.93579e+00 -4.70879e-02
       C  1.57614e+00 -9.97727e+00 -1.35805e-01
       C -6.57657e-01 -1.12238e+01 -7.19042e-02
       C  2.33193e+00 -1.12002e+01 -2.36005e-01
       C  8.90068e-02 -7.49694e+00 -2.76282e-01
       C  1.52174e+00 -7.47868e+00 -2.96553e-01
       C -5.27720e-01 -8.72612e+00 -1.12526e-01
       C  2.30497e+00 -8.79416e+00 -8.82870e-02
       C  1.45234e-01 -4.98775e+00 -2.35404e-01
       C  1.58557e+00 -5.04054e+00 -1.53945e-01
       C -6.12546e-01 -6.23183e+00 -3.38365e-01
       C  2.28874e+00 -6.19312e+00 -7.56913e-02
       C  1.44675e-01 -2.45200e+00 -1.55725e-01
       C  1.52020e+00 -2.54925e+00 -1.61491e-01
       C -5.32443e-01 -3.84838e+00 -1.70851e-01
       C  2.28642e+00 -3.71912e+00 -3.75909e-02
       C  4.38742e+00 -9.25606e-02 -8.86284e-02
       C  5.84117e+00 -6.50492e-02 -1.46601e-01
       C  3.73423e+00 -1.28354e+00 -7.60387e-02
       C  6.62532e+00 -1.29342e+00 -1.21241e-01
       C  4.47541e+00 -1.74470e+01 -7.78881e-02
       C  5.86877e+00 -1.74404e+01 -2.85836e-02
       C  3.69190e+00 -1.86541e+01  6.91493e-02
       C  6.58530e+00 -1.85818e+01 -5.79172e-03
       C  4.43859e+00 -1.48856e+01 -1.93878e-02
       C  5.91060e+00 -1.49068e+01  7.72329e-02
       C  3.75448e+00 -1.61264e+01 -1.36102e-01
       C  6.56240e+00 -1.62143e+01  1.10755e-01
       C  4.39406e+00 -1.24301e+01 -2.43224e-02
       C  5.92584e+00 -1.25060e+01  4.60234e-02
       C  3.69691e+00 -1.36885e+01 -1.80993e-01
       C  6.51732e+00 -1.36717e+01  1.07686e-01
       C  8.75269e+00 -1.11556e-02  4.97163e-02
       C  1.01931e+01 -8.26002e-02  1.52676e-02
       C  8.06949e+00 -1.26176e+00 -1.51692e-01
       C  1.08622e+01 -1.31214e+00  2.41302e-02
       C  8.70108e+00 -1.73247e+01 -1.37703e-01
       C  1.01731e+01 -1.73804e+01 -1.11142e-01
       C  8.05086e+00 -1.86286e+01  9.55510e-02
       C  1.09431e+01 -1.85895e+01  9.40749e-03
       C  8.68492e+00 -1.48466e+01  1.23220e-01
       C  1.01292e+01 -1.48847e+01  3.23507e-02
       C  8.03729e+00 -1.61657e+01 -3.13500e-03
       C  1.08611e+01 -1.61477e+01 -8.27981e-02
       C  8.60010e+00 -1.23790e+01 -1.02720e-01
       C  1.01746e+01 -1.24321e+01  6.21414e-02
       C  7.92262e+00 -1.36461e+01  7.62949e-02
       C  1.09229e+01 -1.36431e+01  2.63348e-02
       C  1.30506e+01  3.24003e-02 -1.00195e-01
       C  1.44299e+01 -7.54562e-02 -8.70531e-02
       C  1.23081e+01 -1.27192e+00 -1.20259e-01
       C  1.51759e+01 -1.25385e+00 -2.91846e-03
       C  1.30986e+01 -1.73668e+01  8.49817e-03
       C  1.44673e+01 -1.72939e+01 -2.26629e-01
       C  1.23797e+01 -1.86053e+01  2.27830e-02
       C  1.51515e+01 -1.86451e+01 -1.13133e-01
       C  1.29648e+01 -1.49303e+01 -2.70650e-02
       C  1.44013e+01 -1.49508e+01 -9.72455e-02
       C  1.23114e+01 -1.62278e+01  7.11463e-03
       C  1.51595e+01 -1.61761e+01 -1.39081e-01
       C  1.29668e+01 -1.24730e+01 -1.31706e-01
       C  1.44445e+01 -1.24541e+01 -1.00553e-01
       C  1.23512e+01 -1.36990e+01 -1.14465e-01
       C  1.51146e+01 -1.36596e+01 -1.06136e-01
       C  1.84015e-01 -2.77080e-02 -4.53225e-02
       C  1.56824e+00 -1.47621e-01 -1.29790e-02
       C -5.37730e-01 -1.28475e+00 -1.21378e-01
       C  2.31478e+00 -1.27319e+00 -8.58900e-02
       C  2.27525e-01 -1.73699e+01 -1.53455e-01
       C  1.61165e+00 -1.73723e+01  1.15477e-01
       C -5.61158e-01 -1.85625e+01 -9.28996e-02
       C  2.38234e+00 -1.85439e+01 -3.06158e-02
       C  2.15853e-01 -1.49174e+01 -2.85535e-01
       C  1.56232e+00 -1.49424e+01 -1.92632e-01
       C -5.36529e-01 -1.61330e+01 -1.00565e-01
       C  2.28792e+00 -1.62075e+01 -8.53869e-02
       C  2.08129e-01 -1.24889e+01 -1.14606e-01
       C  1.65576e+00 -1.24698e+01 -1.87314e-01
       C -6.08312e-01 -1.36817e+01 -2.53496e-01
       C  2.35543e+00 -1.37320e+01 -1.13170e-01
       H  6.00766e+00 -1.01505e+01  5.53522e+00
       C  5.31601e+00 -9.50852e+00  4.99256e+00
       C  5.84036e+00 -8.15408e+00  5.04649e+00
       H  6.79204e+00 -7.95008e+00  5.47655e+00
       C  5.15430e+00 -7.06582e+00  4.53696e+00
       H  5.61257e+00 -6.05613e+00  4.62984e+00
       C  3.85466e+00 -7.32560e+00  3.99962e+00
       H  3.13991e+00 -6.38309e+00  3.97541e+00
       C  3.46548e+00 -8.64338e+00  3.75728e+00
       H  2.53744e+00 -8.87300e+00  3.27977e+00
       C  4.20031e+00 -9.71662e+00  4.18835e+00
       H  3.84304e+00 -1.08190e+01  4.03617e+00
