140
# CELL(abcABC):   17.14040    19.79200    30.00000    90.00000    90.00000    90.00000  Step:           0  Bead:      26 positions{angstrom}  cell{angstrom}
       C  4.41980e+00 -1.00062e+01 -7.89942e-02
       C  5.88079e+00 -1.00050e+01 -1.14499e-01
       C  3.74614e+00 -1.12229e+01 -3.76435e-02
       C  6.53856e+00 -1.11602e+01 -2.62864e-01
       C  4.45636e+00 -7.49603e+00 -7.84035e-02
       C  5.81589e+00 -7.56130e+00 -1.88420e-01
       C  3.74837e+00 -8.73981e+00  1.19234e-02
       C  6.57310e+00 -8.84581e+00 -1.91514e-01
       C  4.45944e+00 -5.06880e+00 -1.38325e-01
       C  5.84200e+00 -5.04819e+00 -1.16515e-01
       C  3.73252e+00 -6.29844e+00 -9.06112e-02
       C  6.62600e+00 -6.29787e+00 -1.25231e-01
       C  4.39327e+00 -2.53592e+00 -9.28783e-02
       C  5.88932e+00 -2.51965e+00 -1.84042e-01
       C  3.72403e+00 -3.81190e+00 -2.71963e-01
       C  6.58609e+00 -3.69849e+00 -1.61106e-01
       C  8.74529e+00 -1.00060e+01 -1.25776e-01
       C  1.01693e+01 -9.92729e+00 -1.42063e-01
       C  8.04408e+00 -1.12273e+01  5.68160e-02
       C  1.09484e+01 -1.11379e+01 -8.85410e-02
       C  8.74012e+00 -7.50947e+00 -1.45613e-01
       C  1.02001e+01 -7.45837e+00 -1.32416e-01
       C  8.04119e+00 -8.75709e+00 -1.24962e-01
       C  1.08350e+01 -8.71300e+00 -2.38673e-01
       C  8.73669e+00 -5.00258e+00 -1.10419e-01
       C  1.01967e+01 -5.02973e+00 -1.82286e-01
       C  7.99703e+00 -6.26394e+00 -7.55805e-02
       C  1.08529e+01 -6.22827e+00 -2.61339e-01
       C  8.67689e+00 -2.57821e+00 -2.01620e-01
       C  1.01620e+01 -2.48325e+00 -2.77552e-01
       C  7.93397e+00 -3.81594e+00 -2.23880e-01
       C  1.08275e+01 -3.76764e+00 -6.25692e-02
       C  1.29686e+01 -9.91371e+00 -1.44833e-01
       C  1.44021e+01 -9.94578e+00 -2.07322e-01
       C  1.23163e+01 -1.11520e+01  2.91460e-02
       C  1.51036e+01 -1.11501e+01 -1.95061e-01
       C  1.30165e+01 -7.47780e+00 -3.05769e-02
       C  1.44047e+01 -7.48706e+00 -1.30001e-01
       C  1.22745e+01 -8.68900e+00 -1.90235e-01
       C  1.51179e+01 -8.61647e+00 -1.03053e-01
       C  1.30323e+01 -4.94706e+00 -5.66812e-02
       C  1.44616e+01 -5.08099e+00 -1.28280e-01
       C  1.23019e+01 -6.24123e+00 -1.51073e-01
       C  1.51458e+01 -6.25032e+00 -1.72239e-01
       C  1.30106e+01 -2.57571e+00  7.27591e-03
       C  1.44349e+01 -2.51080e+00 -1.07749e-01
       C  1.23296e+01 -3.73440e+00 -1.37085e-01
       C  1.51205e+01 -3.78517e+00 -4.30146e-02
       C  1.02060e-01 -9.96126e+00 -2.35428e-01
       C  1.52576e+00 -1.00152e+01 -6.11085e-02
       C -5.72047e-01 -1.12235e+01 -1.49798e-01
       C  2.27238e+00 -1.12587e+01 -4.29105e-02
       C  1.45681e-01 -7.42151e+00 -1.25514e-01
       C  1.55999e+00 -7.48420e+00 -1.11429e-01
       C -5.85481e-01 -8.77208e+00 -1.71003e-01
       C  2.19003e+00 -8.77776e+00 -7.53586e-02
       C  1.51340e-01 -5.00960e+00  1.76025e-03
       C  1.63409e+00 -5.05071e+00 -5.03383e-02
       C -5.52296e-01 -6.29046e+00 -1.12314e-01
       C  2.27070e+00 -6.20681e+00 -2.87374e-02
       C  1.42605e-01 -2.53560e+00  1.88517e-02
       C  1.54270e+00 -2.50119e+00  5.75171e-02
       C -6.01271e-01 -3.74116e+00 -4.51205e-02
       C  2.31757e+00 -3.72468e+00 -1.69417e-01
       C  4.40836e+00 -1.31160e-01 -1.16896e-01
       C  5.88252e+00 -5.54489e-02  5.05157e-02
       C  3.69416e+00 -1.30321e+00 -5.13677e-02
       C  6.54556e+00 -1.25765e+00 -5.35992e-02
       C  4.39772e+00 -1.72762e+01 -3.81900e-02
       C  5.81914e+00 -1.73837e+01 -1.64709e-02
       C  3.67044e+00 -1.85674e+01 -2.24393e-01
       C  6.61061e+00 -1.86378e+01  1.30698e-01
       C  4.48105e+00 -1.48832e+01  1.82003e-02
       C  5.87784e+00 -1.49209e+01 -4.81923e-03
       C  3.73668e+00 -1.61409e+01 -1.42311e-02
       C  6.56068e+00 -1.61660e+01 -2.17950e-02
       C  4.42578e+00 -1.24414e+01 -1.00880e-01
       C  5.83622e+00 -1.23812e+01 -2.01217e-01
       C  3.78130e+00 -1.36378e+01 -8.04370e-02
       C  6.60065e+00 -1.36700e+01 -1.08257e-01
       C  8.78624e+00 -7.34353e-02  4.15318e-02
       C  1.01932e+01 -9.68850e-02 -9.29454e-02
       C  8.06229e+00 -1.28298e+00 -5.50379e-02
       C  1.07881e+01 -1.28099e+00 -1.05414e-01
       C  8.65805e+00 -1.74223e+01  2.99134e-01
       C  1.01028e+01 -1.72861e+01  1.90830e-01
       C  7.97060e+00 -1.86449e+01 -7.88499e-03
       C  1.07958e+01 -1.86006e+01 -1.99653e-02
       C  8.72495e+00 -1.48715e+01  2.37802e-02
       C  1.01052e+01 -1.48312e+01 -3.40253e-02
       C  7.96547e+00 -1.61260e+01  9.56199e-02
       C  1.08725e+01 -1.61149e+01 -3.69877e-02
       C  8.75906e+00 -1.24635e+01  1.35533e-01
       C  1.01427e+01 -1.23568e+01 -8.59233e-02
       C  7.98782e+00 -1.36508e+01  2.44576e-02
       C  1.08779e+01 -1.36334e+01  7.33516e-04
       C  1.29639e+01 -1.93828e-02 -1.71006e-01
       C  1.43831e+01  3.55898e-02  5.34380e-02
       C  1.23141e+01 -1.35635e+00  2.96686e-02
       C  1.50998e+01 -1.22600e+00 -1.00913e-01
       C  1.29514e+01 -1.73987e+01 -9.87971e-02
       C  1.44068e+01 -1.73216e+01 -4.88512e-03
       C  1.21987e+01 -1.86305e+01 -1.91664e-01
       C  1.50708e+01 -1.86310e+01  3.87541e-02
       C  1.29694e+01 -1.48804e+01 -1.87467e-01
       C  1.44103e+01 -1.48813e+01 -6.75965e-02
       C  1.22148e+01 -1.62117e+01 -2.27669e-01
       C  1.51846e+01 -1.62481e+01 -1.33847e-01
       C  1.29937e+01 -1.23826e+01  4.34300e-02
       C  1.45006e+01 -1.23889e+01 -1.05997e-01
       C  1.23593e+01 -1.36386e+01 -7.96341e-02
       C  1.50966e+01 -1.36238e+01 -1.23850e-01
       C  1.69291e-01 -6.71493e-02 -3.00116e-02
       C  1.63213e+00 -1.24362e-01  7.44963e-03
       C -6.18385e-01 -1.28893e+00  2.33077e-02
       C  2.28046e+00 -1.33495e+00 -1.00252e-01
       C  1.35037e-01 -1.73077e+01 -2.44851e-01
       C  1.55221e+00 -1.73808e+01 -1.57164e-01
       C -6.46675e-01 -1.86139e+01 -3.84577e-02
       C  2.26410e+00 -1.86079e+01 -1.88517e-01
       C  7.71577e-02 -1.49228e+01 -1.82406e-01
       C  1.55626e+00 -1.49353e+01 -1.84669e-01
       C -5.56191e-01 -1.61505e+01 -1.71499e-01
       C  2.27728e+00 -1.60935e+01 -1.80733e-01
       C  1.33277e-01 -1.24576e+01 -2.38590e-02
       C  1.58337e+00 -1.24233e+01  7.65318e-02
       C -6.05911e-01 -1.36910e+01 -4.12187e-02
       C  2.25895e+00 -1.36881e+01  1.31985e-01
       H  5.84072e+00 -1.02974e+01  5.74533e+00
       C  5.45770e+00 -9.42353e+00  5.01502e+00
       C  5.78395e+00 -8.07581e+00  5.14294e+00
       H  6.94336e+00 -8.02338e+00  5.59311e+00
       C  5.07750e+00 -7.12827e+00  4.66705e+00
       H  5.33218e+00 -6.09342e+00  4.86485e+00
       C  3.98675e+00 -7.37596e+00  3.91025e+00
       H  3.21988e+00 -6.62127e+00  3.43303e+00
       C  3.77915e+00 -8.71818e+00  3.52667e+00
       H  3.02384e+00 -8.94111e+00  2.76644e+00
       C  4.47532e+00 -9.79641e+00  4.03214e+00
       H  4.04407e+00 -1.09427e+01  3.65766e+00
140
# CELL(abcABC):   17.14040    19.79200    30.00000    90.00000    90.00000    90.00000  Step:         100  Bead:      26 positions{angstrom}  cell{angstrom}
       C  4.42405e+00 -9.98382e+00 -9.74995e-02
       C  5.81582e+00 -9.90292e+00 -8.42348e-03
       C  3.72480e+00 -1.11839e+01 -1.12690e-01
       C  6.43335e+00 -1.12018e+01 -1.01219e-01
       C  4.40518e+00 -7.44228e+00 -3.17629e-02
       C  5.75495e+00 -7.45598e+00 -7.85699e-02
       C  3.68944e+00 -8.74805e+00 -6.74924e-02
       C  6.60959e+00 -8.72306e+00 -8.31298e-02
       C  4.41138e+00 -5.05131e+00  3.92313e-02
       C  5.80441e+00 -4.99679e+00 -1.77470e-01
       C  3.67868e+00 -6.21220e+00 -2.10708e-02
       C  6.59902e+00 -6.23794e+00 -2.22082e-01
       C  4.50413e+00 -2.56394e+00  6.47643e-03
       C  5.86646e+00 -2.53451e+00 -1.66804e-02
       C  3.78734e+00 -3.80411e+00 -3.79145e-03
       C  6.52553e+00 -3.74957e+00 -1.36600e-01
       C  8.71864e+00 -9.84396e+00 -6.86267e-02
       C  1.01355e+01 -9.82998e+00  2.09053e-02
       C  8.02096e+00 -1.12289e+01 -1.16680e-01
       C  1.08919e+01 -1.10839e+01  5.16341e-02
       C  8.66824e+00 -7.42463e+00 -2.02839e-01
       C  1.00855e+01 -7.49783e+00 -1.45847e-01
       C  7.93066e+00 -8.71245e+00 -7.90021e-02
       C  1.08047e+01 -8.65447e+00 -1.18633e-01
       C  8.64562e+00 -4.89555e+00 -8.94091e-02
       C  1.01508e+01 -4.90633e+00 -9.43945e-02
       C  8.03066e+00 -6.16830e+00 -2.17822e-01
       C  1.08319e+01 -6.23358e+00 -1.16956e-01
       C  8.71769e+00 -2.56675e+00 -7.42760e-02
       C  1.01265e+01 -2.45443e+00 -1.31429e-01
       C  8.00193e+00 -3.71294e+00 -1.45016e-01
       C  1.08577e+01 -3.72824e+00 -7.66278e-02
       C  1.29502e+01 -9.92686e+00 -2.11392e-01
       C  1.43778e+01 -9.96072e+00 -1.55534e-01
       C  1.23107e+01 -1.12144e+01 -1.24922e-01
       C  1.50969e+01 -1.11972e+01 -1.54314e-01
       C  1.29612e+01 -7.46437e+00 -2.61190e-01
       C  1.44493e+01 -7.49502e+00 -4.04500e-01
       C  1.22581e+01 -8.72362e+00 -2.55199e-01
       C  1.50916e+01 -8.63380e+00 -1.41446e-01
       C  1.29161e+01 -4.96787e+00 -1.08217e-01
       C  1.44419e+01 -4.99071e+00  1.92481e-02
       C  1.22109e+01 -6.22656e+00 -2.07764e-01
       C  1.50900e+01 -6.32044e+00 -2.10643e-01
       C  1.30764e+01 -2.49359e+00 -1.87579e-02
       C  1.45070e+01 -2.49258e+00  1.47692e-03
       C  1.23144e+01 -3.78661e+00 -1.27666e-01
       C  1.51818e+01 -3.80212e+00  1.30694e-02
       C  1.34488e-01 -9.94089e+00 -4.93838e-02
       C  1.56618e+00 -1.00138e+01 -1.19055e-01
       C -6.09722e-01 -1.12012e+01 -1.02691e-01
       C  2.33518e+00 -1.12271e+01 -2.24974e-01
       C  1.05019e-01 -7.49694e+00 -2.83672e-01
       C  1.54002e+00 -7.44975e+00 -3.12062e-01
       C -5.66808e-01 -8.76816e+00 -1.51639e-01
       C  2.27772e+00 -8.71969e+00 -7.62547e-02
       C  1.16707e-01 -5.02177e+00 -2.40393e-01
       C  1.59487e+00 -5.01066e+00 -2.41342e-01
       C -5.87482e-01 -6.23696e+00 -3.12650e-01
       C  2.29611e+00 -6.22060e+00 -9.58102e-02
       C  1.32423e-01 -2.48443e+00 -1.60629e-01
       C  1.51330e+00 -2.56087e+00 -1.75659e-01
       C -5.36721e-01 -3.82940e+00 -1.84223e-01
       C  2.26057e+00 -3.71504e+00 -6.88354e-02
       C  4.35768e+00 -8.91076e-02 -5.80661e-02
       C  5.88634e+00 -9.26972e-02 -1.84454e-01
       C  3.70106e+00 -1.26041e+00 -5.88993e-02
       C  6.63775e+00 -1.30475e+00 -1.41174e-01
       C  4.43684e+00 -1.74357e+01 -7.87391e-02
       C  5.86833e+00 -1.74601e+01  5.45494e-03
       C  3.65990e+00 -1.86462e+01  3.34602e-02
       C  6.60033e+00 -1.86329e+01 -3.98604e-02
       C  4.36998e+00 -1.48572e+01 -5.76850e-02
       C  5.87222e+00 -1.49561e+01  1.23633e-01
       C  3.78427e+00 -1.61672e+01 -1.61261e-01
       C  6.61143e+00 -1.61583e+01  7.51457e-02
       C  4.41967e+00 -1.24302e+01 -3.60344e-02
       C  5.90848e+00 -1.24831e+01  6.98938e-02
       C  3.68897e+00 -1.36843e+01 -1.69205e-01
       C  6.52130e+00 -1.36989e+01  9.50465e-02
       C  8.78335e+00 -3.45278e-02  3.10976e-02
       C  1.01497e+01 -7.39151e-02  1.34654e-02
       C  8.05771e+00 -1.24080e+00 -1.53860e-01
       C  1.08658e+01 -1.34792e+00  7.09296e-02
       C  8.73263e+00 -1.73490e+01 -1.27420e-01
       C  1.01058e+01 -1.73747e+01 -1.26165e-01
       C  8.11224e+00 -1.86028e+01  8.97836e-02
       C  1.09059e+01 -1.85616e+01  5.53405e-02
       C  8.68793e+00 -1.48807e+01  1.58789e-01
       C  1.01427e+01 -1.49067e+01 -4.86268e-03
       C  8.01354e+00 -1.61267e+01 -4.01694e-02
       C  1.08572e+01 -1.61578e+01 -9.76362e-02
       C  8.59359e+00 -1.23525e+01 -8.36164e-02
       C  1.01214e+01 -1.24029e+01  8.00526e-02
       C  7.89657e+00 -1.36240e+01  1.09589e-01
       C  1.09004e+01 -1.36242e+01  3.19768e-02
       C  1.30570e+01  3.71251e-03 -9.32369e-02
       C  1.44948e+01 -7.08693e-02 -5.33512e-02
       C  1.23215e+01 -1.26292e+00 -4.16044e-02
       C  1.51599e+01 -1.25066e+00  3.47621e-03
       C  1.31152e+01 -1.73623e+01  3.17336e-02
       C  1.44848e+01 -1.73623e+01 -2.58368e-01
       C  1.23244e+01 -1.86450e+01  4.09095e-02
       C  1.51139e+01 -1.86295e+01 -7.24662e-02
       C  1.29401e+01 -1.49174e+01 -1.11747e-02
       C  1.44046e+01 -1.49474e+01 -8.76387e-02
       C  1.22911e+01 -1.62062e+01 -2.09567e-02
       C  1.51551e+01 -1.62134e+01 -1.29092e-01
       C  1.29408e+01 -1.24324e+01 -1.67309e-01
       C  1.44391e+01 -1.24382e+01 -1.06236e-01
       C  1.23518e+01 -1.37282e+01 -1.24698e-01
       C  1.51559e+01 -1.36626e+01 -1.15157e-01
       C  1.82335e-01 -8.10550e-03 -6.92163e-02
       C  1.56781e+00 -8.46182e-02 -1.54419e-02
       C -5.61160e-01 -1.27406e+00 -1.09520e-01
       C  2.30411e+00 -1.27465e+00 -9.90840e-02
       C  1.97400e-01 -1.73961e+01 -1.70080e-01
       C  1.64373e+00 -1.73787e+01  5.96021e-02
       C -5.88597e-01 -1.85362e+01 -8.61238e-02
       C  2.35550e+00 -1.85944e+01  3.77820e-02
       C  2.03753e-01 -1.49491e+01 -2.53762e-01
       C  1.57835e+00 -1.49180e+01 -1.97814e-01
       C -5.69109e-01 -1.61341e+01 -1.20134e-01
       C  2.29949e+00 -1.62481e+01 -8.99563e-02
       C  1.77911e-01 -1.25361e+01 -1.03839e-01
       C  1.65340e+00 -1.24673e+01 -1.63578e-01
       C -6.59263e-01 -1.36924e+01 -2.77717e-01
       C  2.34702e+00 -1.37162e+01 -1.18733e-01
       H  6.02414e+00 -1.01854e+01  5.53908e+00
       C  5.32578e+00 -9.50664e+00  4.97175e+00
       C  5.84147e+00 -8.18061e+00  5.02591e+00
       H  6.74565e+00 -7.87756e+00  5.37273e+00
       C  5.17206e+00 -7.08607e+00  4.55409e+00
       H  5.59583e+00 -6.05851e+00  4.48800e+00
       C  3.91453e+00 -7.29751e+00  3.96074e+00
       H  3.05344e+00 -6.35811e+00  3.93805e+00
       C  3.43792e+00 -8.67382e+00  3.74419e+00
       H  2.52451e+00 -8.73124e+00  3.16513e+00
       C  4.15558e+00 -9.68159e+00  4.22315e+00
       H  3.72918e+00 -1.06972e+01  4.11114e+00
