140
# CELL(abcABC):   17.14040    19.79200    30.00000    90.00000    90.00000    90.00000  Step:           0  Bead:      21 positions{angstrom}  cell{angstrom}
       C  4.45829e+00 -9.97339e+00 -1.20009e-01
       C  5.88454e+00 -9.99086e+00 -1.35305e-01
       C  3.68146e+00 -1.12575e+01 -7.76096e-02
       C  6.53418e+00 -1.11613e+01 -2.42257e-01
       C  4.38531e+00 -7.48496e+00 -4.71944e-02
       C  5.92329e+00 -7.55625e+00 -2.47032e-01
       C  3.65931e+00 -8.71815e+00  1.30368e-02
       C  6.58529e+00 -8.75241e+00 -1.87134e-01
       C  4.41473e+00 -5.01144e+00 -1.34694e-01
       C  5.84060e+00 -5.00775e+00 -1.27309e-01
       C  3.74237e+00 -6.30168e+00 -1.27962e-01
       C  6.64442e+00 -6.32717e+00 -1.29549e-01
       C  4.41885e+00 -2.51767e+00 -1.80192e-01
       C  5.84555e+00 -2.56330e+00 -1.66145e-01
       C  3.68016e+00 -3.77844e+00 -2.43692e-01
       C  6.61562e+00 -3.73820e+00 -2.04105e-01
       C  8.69283e+00 -9.99148e+00 -1.39881e-01
       C  1.01465e+01 -9.93527e+00 -1.39083e-01
       C  8.09017e+00 -1.12379e+01  3.64643e-02
       C  1.08932e+01 -1.11136e+01 -6.20651e-02
       C  8.76778e+00 -7.52918e+00 -1.05362e-01
       C  1.01709e+01 -7.44203e+00 -1.28984e-01
       C  8.00837e+00 -8.72125e+00 -1.60291e-01
       C  1.09005e+01 -8.71239e+00 -2.65402e-01
       C  8.76919e+00 -4.95271e+00 -5.49779e-02
       C  1.01225e+01 -5.02417e+00 -1.69220e-01
       C  8.01476e+00 -6.25604e+00 -1.75741e-01
       C  1.07982e+01 -6.23962e+00 -2.14437e-01
       C  8.73924e+00 -2.56954e+00 -1.86388e-01
       C  1.01330e+01 -2.50385e+00 -2.78951e-01
       C  7.98961e+00 -3.74836e+00 -3.11577e-01
       C  1.08605e+01 -3.82022e+00 -3.30305e-02
       C  1.28821e+01 -9.91320e+00 -8.04999e-02
       C  1.43682e+01 -9.87972e+00 -1.90191e-01
       C  1.22602e+01 -1.11633e+01  6.88284e-02
       C  1.51806e+01 -1.11789e+01 -1.76249e-01
       C  1.30368e+01 -7.44203e+00 -2.66298e-02
       C  1.43872e+01 -7.37228e+00 -1.57327e-01
       C  1.23499e+01 -8.67529e+00 -2.22640e-01
       C  1.50969e+01 -8.62941e+00 -1.88692e-01
       C  1.29708e+01 -4.93624e+00 -1.08333e-01
       C  1.44364e+01 -5.00357e+00 -1.69443e-01
       C  1.23107e+01 -6.21353e+00 -1.32626e-01
       C  1.52110e+01 -6.26719e+00 -1.86944e-01
       C  1.29845e+01 -2.52482e+00  7.80163e-03
       C  1.44471e+01 -2.47725e+00 -1.67664e-01
       C  1.23628e+01 -3.75239e+00 -1.91109e-01
       C  1.50858e+01 -3.81358e+00 -7.88938e-02
       C  1.24571e-01 -9.98304e+00 -2.16973e-01
       C  1.57281e+00 -1.00053e+01  6.75624e-03
       C -5.92196e-01 -1.12912e+01 -2.07331e-01
       C  2.34904e+00 -1.13119e+01 -4.42360e-02
       C  1.83854e-01 -7.46930e+00 -1.43088e-01
       C  1.61785e+00 -7.54160e+00 -8.91059e-02
       C -6.28127e-01 -8.72418e+00 -1.76926e-01
       C  2.17404e+00 -8.81904e+00 -3.14964e-02
       C  1.03369e-01 -4.92848e+00 -8.12160e-02
       C  1.62321e+00 -5.06126e+00 -4.42258e-02
       C -5.76444e-01 -6.25090e+00 -1.55444e-01
       C  2.26631e+00 -6.28513e+00 -2.38260e-03
       C  1.15382e-01 -2.56906e+00  5.06269e-02
       C  1.54041e+00 -2.53604e+00  5.92168e-02
       C -5.25985e-01 -3.73671e+00 -3.47036e-02
       C  2.29496e+00 -3.76361e+00 -1.44659e-01
       C  4.42232e+00 -1.35267e-01 -4.29716e-02
       C  5.91513e+00 -6.24399e-02 -1.14728e-02
       C  3.71180e+00 -1.33089e+00 -9.12762e-02
       C  6.55263e+00 -1.27825e+00 -9.06316e-02
       C  4.35501e+00 -1.72995e+01 -5.63072e-02
       C  5.86615e+00 -1.74132e+01 -4.74911e-02
       C  3.71834e+00 -1.85987e+01 -1.70960e-01
       C  6.48074e+00 -1.86645e+01  1.23668e-01
       C  4.40505e+00 -1.48692e+01 -2.89472e-02
       C  5.80570e+00 -1.48666e+01  2.58278e-02
       C  3.74816e+00 -1.61942e+01 -2.62053e-02
       C  6.60549e+00 -1.61024e+01  8.17223e-02
       C  4.43237e+00 -1.24016e+01 -7.00133e-02
       C  5.86071e+00 -1.23669e+01 -1.86663e-01
       C  3.70622e+00 -1.36883e+01 -7.16724e-02
       C  6.59697e+00 -1.36576e+01 -1.41948e-01
       C  8.73671e+00 -2.64305e-02 -2.09014e-02
       C  1.01142e+01 -5.13179e-02 -8.62136e-02
       C  8.07476e+00 -1.27321e+00 -2.70151e-02
       C  1.07812e+01 -1.27865e+00 -1.78014e-01
       C  8.67964e+00 -1.74355e+01  2.69980e-01
       C  1.01371e+01 -1.73844e+01  2.25374e-01
       C  7.93059e+00 -1.86637e+01  4.83103e-02
       C  1.07689e+01 -1.86068e+01 -9.64963e-02
       C  8.71528e+00 -1.49223e+01 -1.61168e-02
       C  1.00723e+01 -1.48554e+01 -1.15421e-02
       C  7.98483e+00 -1.61308e+01  1.28551e-01
       C  1.08624e+01 -1.60530e+01 -2.35575e-02
       C  8.79248e+00 -1.24258e+01  3.80952e-02
       C  1.02090e+01 -1.23776e+01 -6.12728e-02
       C  8.01775e+00 -1.36588e+01  2.15424e-02
       C  1.09716e+01 -1.36331e+01 -4.44254e-03
       C  1.29718e+01 -1.87922e-02 -1.73393e-01
       C  1.42896e+01 -1.19449e-02 -1.36869e-02
       C  1.22296e+01 -1.29220e+00  6.00468e-02
       C  1.51331e+01 -1.21370e+00 -8.27708e-02
       C  1.30202e+01 -1.73742e+01 -1.25330e-01
       C  1.43614e+01 -1.73410e+01 -1.12245e-02
       C  1.22483e+01 -1.85681e+01 -1.44253e-01
       C  1.50828e+01 -1.85874e+01  1.31938e-02
       C  1.30167e+01 -1.48996e+01 -1.51979e-01
       C  1.44335e+01 -1.48765e+01 -1.29441e-01
       C  1.22446e+01 -1.61423e+01 -2.00045e-01
       C  1.51601e+01 -1.61838e+01 -1.76325e-01
       C  1.30124e+01 -1.24488e+01  4.36353e-02
       C  1.44601e+01 -1.23413e+01 -1.40714e-01
       C  1.23612e+01 -1.36733e+01 -3.38252e-02
       C  1.50920e+01 -1.36347e+01 -1.36154e-01
       C  1.18740e-01 -4.63722e-02 -1.27868e-02
       C  1.52747e+00 -9.45488e-02 -2.84939e-02
       C -5.61136e-01 -1.27869e+00 -8.01786e-03
       C  2.26570e+00 -1.32225e+00 -3.86735e-02
       C  1.48997e-01 -1.73276e+01 -2.21737e-01
       C  1.51269e+00 -1.73278e+01 -1.07559e-01
       C -5.91746e-01 -1.85768e+01 -2.19857e-02
       C  2.26243e+00 -1.86374e+01 -2.25080e-01
       C  1.26557e-01 -1.49174e+01 -1.43902e-01
       C  1.52219e+00 -1.48842e+01 -1.68157e-01
       C -5.28113e-01 -1.61236e+01 -2.22442e-01
       C  2.24968e+00 -1.60725e+01 -2.17024e-01
       C  7.99516e-02 -1.24876e+01 -4.85879e-02
       C  1.58052e+00 -1.24482e+01  7.42328e-02
       C -6.48379e-01 -1.36652e+01 -8.49646e-02
       C  2.22039e+00 -1.36851e+01  6.98290e-02
       H  5.93394e+00 -1.02971e+01  5.63975e+00
       C  5.46310e+00 -9.44778e+00  4.95778e+00
       C  5.83543e+00 -8.13968e+00  5.20416e+00
       H  6.80458e+00 -7.67147e+00  5.82993e+00
       C  5.08419e+00 -7.14349e+00  4.63262e+00
       H  5.24851e+00 -6.14365e+00  5.09955e+00
       C  3.98214e+00 -7.42776e+00  3.84850e+00
       H  3.29606e+00 -6.63336e+00  3.47963e+00
       C  3.78082e+00 -8.76627e+00  3.53320e+00
       H  2.92911e+00 -9.01258e+00  2.81479e+00
       C  4.51270e+00 -9.80380e+00  3.97547e+00
       H  4.18734e+00 -1.07375e+01  3.81692e+00
140
# CELL(abcABC):   17.14040    19.79200    30.00000    90.00000    90.00000    90.00000  Step:         100  Bead:      21 positions{angstrom}  cell{angstrom}
       C  4.40152e+00 -9.99120e+00 -1.16387e-01
       C  5.77958e+00 -9.92519e+00 -3.67920e-03
       C  3.73235e+00 -1.12612e+01 -1.00120e-01
       C  6.50275e+00 -1.12134e+01 -1.84961e-02
       C  4.33650e+00 -7.44543e+00  8.20957e-02
       C  5.83580e+00 -7.55310e+00 -1.39569e-01
       C  3.59730e+00 -8.75321e+00 -1.18165e-01
       C  6.52650e+00 -8.66210e+00 -8.83384e-02
       C  4.44955e+00 -5.04308e+00  2.40935e-03
       C  5.79994e+00 -5.03323e+00 -1.84730e-01
       C  3.67886e+00 -6.21975e+00 -5.68518e-02
       C  6.61024e+00 -6.22281e+00 -1.78064e-01
       C  4.50075e+00 -2.54678e+00 -9.35715e-02
       C  5.88519e+00 -2.54691e+00 -1.83445e-02
       C  3.74947e+00 -3.83418e+00 -6.37560e-02
       C  6.55924e+00 -3.78277e+00 -9.49159e-02
       C  8.69839e+00 -9.86188e+00 -1.02814e-01
       C  1.01018e+01 -9.92600e+00 -4.08693e-02
       C  7.98753e+00 -1.11341e+01 -8.25211e-02
       C  1.08364e+01 -1.11025e+01  7.74390e-02
       C  8.69590e+00 -7.44094e+00 -2.65678e-01
       C  1.00796e+01 -7.48523e+00 -1.62210e-01
       C  7.97781e+00 -8.75988e+00 -1.63127e-01
       C  1.07976e+01 -8.64689e+00 -1.54535e-01
       C  8.62800e+00 -4.90466e+00 -1.32168e-01
       C  1.01530e+01 -4.93477e+00 -5.18574e-02
       C  8.03192e+00 -6.18108e+00 -2.75188e-01
       C  1.08979e+01 -6.23737e+00 -1.51290e-01
       C  8.70360e+00 -2.50972e+00 -5.79928e-02
       C  1.01350e+01 -2.43348e+00 -1.04798e-01
       C  8.05378e+00 -3.72417e+00 -1.33066e-01
       C  1.08123e+01 -3.70079e+00 -1.19572e-01
       C  1.29564e+01 -9.90180e+00 -1.10857e-01
       C  1.44106e+01 -9.97772e+00 -2.34930e-01
       C  1.23048e+01 -1.11824e+01 -1.73189e-01
       C  1.51226e+01 -1.11869e+01 -1.22544e-01
       C  1.30150e+01 -7.57477e+00 -3.13325e-01
       C  1.44649e+01 -7.52205e+00 -3.80008e-01
       C  1.22545e+01 -8.71296e+00 -2.40667e-01
       C  1.51378e+01 -8.67541e+00 -1.84298e-01
       C  1.30205e+01 -5.01925e+00 -6.29106e-02
       C  1.44456e+01 -5.05730e+00 -5.50455e-02
       C  1.22462e+01 -6.23330e+00 -1.79614e-01
       C  1.51418e+01 -6.30486e+00 -2.25688e-01
       C  1.30802e+01 -2.45056e+00 -4.77708e-02
       C  1.44305e+01 -2.51330e+00 -7.48452e-03
       C  1.23490e+01 -3.71818e+00 -1.39674e-01
       C  1.51487e+01 -3.79386e+00 -3.71549e-02
       C  8.34572e-02 -9.96964e+00 -9.07362e-02
       C  1.61019e+00 -9.98018e+00 -1.28724e-01
       C -5.84046e-01 -1.12646e+01 -2.35989e-02
       C  2.31597e+00 -1.11820e+01 -2.47897e-01
       C  8.85738e-02 -7.52005e+00 -2.46053e-01
       C  1.54798e+00 -7.50168e+00 -2.26257e-01
       C -5.49554e-01 -8.76833e+00 -1.17930e-01
       C  2.26708e+00 -8.78466e+00 -6.87921e-02
       C  1.97125e-01 -4.94007e+00 -2.36506e-01
       C  1.54430e+00 -5.02761e+00 -1.58066e-01
       C -6.64513e-01 -6.26619e+00 -3.43753e-01
       C  2.27259e+00 -6.20421e+00 -1.09766e-01
       C  1.42230e-01 -2.46982e+00 -1.50694e-01
       C  1.52304e+00 -2.55884e+00 -8.32771e-02
       C -5.71969e-01 -3.72917e+00 -1.80483e-01
       C  2.29359e+00 -3.75249e+00 -6.04125e-02
       C  4.38128e+00 -1.08656e-01 -5.10192e-02
       C  5.83503e+00 -4.64975e-02 -1.56682e-01
       C  3.69536e+00 -1.30861e+00 -4.99287e-02
       C  6.60093e+00 -1.27613e+00 -1.12040e-01
       C  4.45521e+00 -1.74142e+01 -1.30954e-01
       C  5.96302e+00 -1.74522e+01 -3.29948e-02
       C  3.72502e+00 -1.86642e+01 -1.11279e-02
       C  6.56519e+00 -1.85785e+01 -7.79847e-03
       C  4.47221e+00 -1.49723e+01 -2.77928e-02
       C  5.82774e+00 -1.49070e+01  1.01643e-01
       C  3.75744e+00 -1.61385e+01 -1.55377e-01
       C  6.58113e+00 -1.62046e+01  9.26771e-02
       C  4.31522e+00 -1.24230e+01 -4.72123e-02
       C  5.90328e+00 -1.23676e+01  3.86701e-02
       C  3.73122e+00 -1.37195e+01 -1.92702e-01
       C  6.51869e+00 -1.36820e+01  9.74786e-02
       C  8.74610e+00 -1.14007e-02  1.79881e-02
       C  1.02391e+01 -5.73602e-02  6.36677e-03
       C  8.03602e+00 -1.26220e+00 -1.85110e-01
       C  1.09042e+01 -1.31161e+00 -4.30342e-03
       C  8.68916e+00 -1.73448e+01 -5.94853e-02
       C  1.02455e+01 -1.73652e+01 -1.37709e-01
       C  8.07915e+00 -1.86110e+01  4.79155e-02
       C  1.09165e+01 -1.86355e+01  2.09861e-02
       C  8.69084e+00 -1.48952e+01  1.54590e-01
       C  1.02038e+01 -1.49166e+01  8.47187e-02
       C  8.02892e+00 -1.61323e+01  1.17531e-02
       C  1.08572e+01 -1.61475e+01 -6.38021e-02
       C  8.63191e+00 -1.23678e+01 -7.48562e-02
       C  1.01752e+01 -1.24363e+01  4.17654e-02
       C  7.96249e+00 -1.36184e+01  9.46617e-02
       C  1.09444e+01 -1.36467e+01 -3.38812e-03
       C  1.30518e+01  5.66820e-03 -1.09760e-01
       C  1.43771e+01 -5.47909e-02 -2.04520e-02
       C  1.23135e+01 -1.25691e+00 -1.39641e-01
       C  1.51646e+01 -1.25503e+00  2.22549e-02
       C  1.30785e+01 -1.74081e+01  4.58983e-03
       C  1.44596e+01 -1.73133e+01 -2.13098e-01
       C  1.23010e+01 -1.86102e+01  1.90635e-02
       C  1.51786e+01 -1.86401e+01 -1.41865e-01
       C  1.29941e+01 -1.49461e+01 -6.66430e-03
       C  1.44096e+01 -1.49444e+01 -7.17237e-02
       C  1.23117e+01 -1.61881e+01  3.79830e-02
       C  1.51402e+01 -1.60872e+01 -1.00088e-01
       C  1.29928e+01 -1.24408e+01 -1.16660e-01
       C  1.44332e+01 -1.24608e+01 -1.14753e-01
       C  1.23521e+01 -1.36992e+01 -1.41624e-01
       C  1.51830e+01 -1.36468e+01 -1.12283e-01
       C  1.61416e-01 -4.06628e-03 -6.89318e-02
       C  1.56871e+00 -1.62551e-01  1.32052e-02
       C -5.76895e-01 -1.27124e+00 -1.03459e-01
       C  2.30925e+00 -1.29149e+00 -4.43488e-02
       C  1.68468e-01 -1.73394e+01 -2.05945e-01
       C  1.59778e+00 -1.73422e+01  9.28440e-02
       C -5.30752e-01 -1.85548e+01 -4.50580e-02
       C  2.30640e+00 -1.85683e+01  5.22569e-03
       C  2.35893e-01 -1.49117e+01 -3.00989e-01
       C  1.59128e+00 -1.49469e+01 -1.99937e-01
       C -5.50566e-01 -1.61297e+01 -1.42070e-01
       C  2.31399e+00 -1.62282e+01 -1.47355e-01
       C  2.20364e-01 -1.24741e+01 -1.64011e-01
       C  1.63126e+00 -1.24492e+01 -1.86658e-01
       C -5.36439e-01 -1.37173e+01 -2.30015e-01
       C  2.33884e+00 -1.37635e+01 -1.08361e-01
       H  5.76218e+00 -1.02216e+01  5.57643e+00
       C  5.31972e+00 -9.44465e+00  4.95976e+00
       C  5.84663e+00 -8.18554e+00  5.06978e+00
       H  6.86042e+00 -7.94234e+00  5.34361e+00
       C  5.13946e+00 -7.12136e+00  4.50676e+00
       H  5.59521e+00 -6.09608e+00  4.51935e+00
       C  3.88682e+00 -7.33434e+00  4.01262e+00
       H  3.14547e+00 -6.43086e+00  3.87198e+00
       C  3.48291e+00 -8.66555e+00  3.77133e+00
       H  2.55248e+00 -8.66234e+00  3.25832e+00
       C  4.17069e+00 -9.78786e+00  4.19507e+00
       H  3.92211e+00 -1.08853e+01  4.20237e+00
