140
# CELL(abcABC):   17.14040    19.79200    30.00000    90.00000    90.00000    90.00000  Step:           0  Bead:      12 positions{angstrom}  cell{angstrom}
       C  4.42858e+00 -1.00022e+01 -1.65953e-01
       C  5.84186e+00 -9.96235e+00 -1.57063e-01
       C  3.70398e+00 -1.12335e+01 -7.49970e-02
       C  6.66901e+00 -1.12154e+01 -2.00953e-01
       C  4.46851e+00 -7.49720e+00 -4.30321e-02
       C  5.87442e+00 -7.57910e+00 -1.67647e-01
       C  3.68381e+00 -8.71518e+00 -2.11212e-02
       C  6.57739e+00 -8.77211e+00 -2.55727e-01
       C  4.46010e+00 -4.99264e+00 -1.54127e-01
       C  5.84506e+00 -4.98339e+00 -1.17205e-01
       C  3.70454e+00 -6.23221e+00 -1.16219e-01
       C  6.58798e+00 -6.28426e+00 -1.86551e-01
       C  4.49065e+00 -2.47432e+00 -1.32024e-01
       C  5.84090e+00 -2.56062e+00 -3.51241e-01
       C  3.78439e+00 -3.74798e+00 -2.95944e-01
       C  6.56936e+00 -3.80062e+00 -2.84429e-01
       C  8.78447e+00 -9.98687e+00 -9.36803e-02
       C  1.01901e+01 -9.94301e+00 -7.51678e-02
       C  8.02959e+00 -1.11769e+01  1.99810e-02
       C  1.08599e+01 -1.12289e+01 -1.15113e-01
       C  8.75748e+00 -7.45507e+00 -2.05284e-01
       C  1.02163e+01 -7.44245e+00 -1.53344e-01
       C  7.98586e+00 -8.70689e+00 -1.60851e-01
       C  1.08256e+01 -8.73482e+00 -2.41922e-01
       C  8.68936e+00 -5.00435e+00  7.09113e-03
       C  1.00782e+01 -5.00269e+00 -1.43251e-01
       C  8.06163e+00 -6.29529e+00 -1.17954e-01
       C  1.08347e+01 -6.22575e+00 -1.93823e-01
       C  8.64726e+00 -2.47257e+00 -2.81019e-01
       C  1.01211e+01 -2.50964e+00 -2.83107e-01
       C  7.97880e+00 -3.78028e+00 -2.84389e-01
       C  1.08609e+01 -3.77434e+00  5.42016e-04
       C  1.29758e+01 -9.87663e+00 -1.60549e-01
       C  1.44299e+01 -9.81879e+00 -1.82474e-01
       C  1.23248e+01 -1.11502e+01  4.70948e-03
       C  1.51885e+01 -1.11260e+01 -2.18384e-01
       C  1.30422e+01 -7.46386e+00  5.89687e-02
       C  1.44394e+01 -7.40727e+00 -8.37919e-02
       C  1.22419e+01 -8.62539e+00 -1.51751e-01
       C  1.51683e+01 -8.72767e+00 -1.75127e-01
       C  1.29588e+01 -5.03404e+00 -1.21583e-01
       C  1.43541e+01 -4.95244e+00 -1.36397e-01
       C  1.23127e+01 -6.28243e+00 -9.18944e-02
       C  1.50986e+01 -6.27240e+00 -1.57194e-01
       C  1.30763e+01 -2.53152e+00 -9.89904e-02
       C  1.44252e+01 -2.48631e+00 -7.23637e-02
       C  1.22295e+01 -3.76154e+00 -8.52059e-02
       C  1.52029e+01 -3.71444e+00 -1.15932e-01
       C  1.32711e-01 -9.95450e+00 -1.62050e-01
       C  1.58742e+00 -1.00287e+01 -1.08269e-01
       C -6.74373e-01 -1.12146e+01 -1.81332e-01
       C  2.32409e+00 -1.12520e+01 -6.53518e-02
       C  1.67153e-01 -7.54691e+00  1.43405e-02
       C  1.53920e+00 -7.49516e+00 -1.09600e-01
       C -6.27624e-01 -8.68724e+00 -2.05567e-01
       C  2.23490e+00 -8.79190e+00 -5.55657e-02
       C  8.93253e-02 -5.00269e+00 -1.09255e-01
       C  1.57158e+00 -4.93813e+00 -6.92487e-02
       C -6.05651e-01 -6.27454e+00 -1.49252e-01
       C  2.27258e+00 -6.27457e+00  2.43997e-02
       C  9.08006e-02 -2.55529e+00  4.03796e-02
       C  1.52495e+00 -2.60735e+00  4.79179e-02
       C -5.76165e-01 -3.73169e+00 -1.10298e-01
       C  2.30801e+00 -3.73510e+00 -1.14385e-01
       C  4.39691e+00 -2.97778e-02 -3.66403e-02
       C  5.79433e+00 -9.91613e-02  1.72206e-02
       C  3.73068e+00 -1.35550e+00 -4.28929e-02
       C  6.52603e+00 -1.32511e+00 -5.61120e-02
       C  4.40376e+00 -1.73231e+01 -9.29176e-03
       C  5.91686e+00 -1.73857e+01 -1.83381e-02
       C  3.69167e+00 -1.86091e+01 -1.86976e-01
       C  6.41155e+00 -1.85316e+01  1.78203e-01
       C  4.45387e+00 -1.48977e+01 -3.19679e-02
       C  5.86262e+00 -1.48911e+01  2.38634e-02
       C  3.71955e+00 -1.60883e+01 -8.97369e-02
       C  6.56985e+00 -1.60936e+01  9.01674e-02
       C  4.41932e+00 -1.24277e+01 -6.95444e-02
       C  5.83481e+00 -1.23637e+01 -1.11886e-01
       C  3.67668e+00 -1.36784e+01 -3.91058e-03
       C  6.57842e+00 -1.37613e+01 -1.41180e-01
       C  8.71548e+00 -2.91376e-02 -9.39276e-02
       C  1.00847e+01  1.18121e-02 -7.08608e-02
       C  8.01888e+00 -1.28613e+00  1.75963e-02
       C  1.08894e+01 -1.34487e+00 -1.81198e-01
       C  8.61557e+00 -1.73648e+01  1.96409e-01
       C  1.02120e+01 -1.73887e+01  2.25349e-01
       C  7.96894e+00 -1.86276e+01  4.26449e-02
       C  1.08772e+01 -1.85119e+01 -1.08692e-01
       C  8.72634e+00 -1.48506e+01 -5.22234e-02
       C  1.01891e+01 -1.48672e+01 -1.08303e-01
       C  7.98958e+00 -1.61561e+01  1.61546e-01
       C  1.07928e+01 -1.61197e+01 -2.20142e-02
       C  8.72191e+00 -1.24045e+01  4.09737e-02
       C  1.02258e+01 -1.24270e+01 -9.61760e-03
       C  8.07473e+00 -1.36365e+01 -3.55717e-02
       C  1.08723e+01 -1.36649e+01  3.44407e-03
       C  1.28193e+01 -1.68986e-02 -1.69613e-01
       C  1.43263e+01 -3.06609e-02 -1.64226e-02
       C  1.22613e+01 -1.27370e+00 -2.47466e-02
       C  1.50914e+01 -1.25525e+00 -9.87059e-02
       C  1.30232e+01 -1.74112e+01 -1.22678e-01
       C  1.44329e+01 -1.73935e+01 -4.73817e-02
       C  1.22749e+01 -1.85344e+01 -1.69605e-01
       C  1.50883e+01 -1.85854e+01  7.81584e-02
       C  1.29667e+01 -1.49168e+01 -2.45338e-01
       C  1.44582e+01 -1.49178e+01 -2.18105e-01
       C  1.22875e+01 -1.60941e+01 -1.07020e-01
       C  1.51542e+01 -1.60941e+01 -2.09975e-01
       C  1.29867e+01 -1.24036e+01 -3.62737e-02
       C  1.43930e+01 -1.23589e+01 -1.44746e-01
       C  1.23715e+01 -1.36692e+01 -2.72297e-02
       C  1.51157e+01 -1.37090e+01 -7.91927e-02
       C  1.80396e-01 -6.73475e-02  4.30757e-02
       C  1.50393e+00 -3.23473e-02 -1.27079e-02
       C -5.41202e-01 -1.28733e+00 -1.85897e-02
       C  2.28933e+00 -1.27070e+00 -4.69811e-02
       C  9.23617e-02 -1.73877e+01 -2.21631e-01
       C  1.56571e+00 -1.72834e+01 -1.65662e-01
       C -5.27592e-01 -1.85790e+01 -1.28907e-01
       C  2.29775e+00 -1.86521e+01 -1.59585e-01
       C  2.84725e-02 -1.48962e+01 -8.45561e-02
       C  1.51425e+00 -1.48997e+01 -9.76485e-02
       C -5.55761e-01 -1.61287e+01 -1.99102e-01
       C  2.31242e+00 -1.61109e+01 -1.38420e-01
       C  1.13833e-01 -1.24648e+01 -8.42621e-02
       C  1.58306e+00 -1.24538e+01  1.63971e-02
       C -6.39076e-01 -1.37323e+01 -7.95473e-02
       C  2.20653e+00 -1.36273e+01  6.55726e-02
       H  5.74788e+00 -1.01958e+01  5.71618e+00
       C  5.46532e+00 -9.48041e+00  4.96576e+00
       C  5.89502e+00 -8.09240e+00  5.13799e+00
       H  6.88262e+00 -7.74141e+00  5.48063e+00
       C  5.02483e+00 -7.15522e+00  4.72819e+00
       H  5.27750e+00 -6.06635e+00  4.88761e+00
       C  4.01244e+00 -7.42799e+00  3.85239e+00
       H  3.15407e+00 -6.68345e+00  3.64752e+00
       C  3.77211e+00 -8.75287e+00  3.53265e+00
       H  2.84624e+00 -9.06408e+00  2.89702e+00
       C  4.45849e+00 -9.83130e+00  4.10463e+00
       H  4.19100e+00 -1.09930e+01  3.79980e+00
140
# CELL(abcABC):   17.14040    19.79200    30.00000    90.00000    90.00000    90.00000  Step:         100  Bead:      12 positions{angstrom}  cell{angstrom}
       C  4.37039e+00 -9.94427e+00 -6.59683e-02
       C  5.74247e+00 -9.90826e+00  1.58806e-02
       C  3.74446e+00 -1.12614e+01 -1.06835e-01
       C  6.49089e+00 -1.11828e+01 -1.27906e-01
       C  4.42080e+00 -7.40626e+00 -2.52978e-02
       C  5.89930e+00 -7.50073e+00 -1.37930e-01
       C  3.73141e+00 -8.70796e+00 -3.90906e-02
       C  6.52270e+00 -8.72155e+00 -1.58053e-01
       C  4.45371e+00 -5.01853e+00  1.10496e-02
       C  5.83742e+00 -5.04672e+00 -1.84361e-01
       C  3.73266e+00 -6.15613e+00  5.24322e-03
       C  6.49727e+00 -6.31782e+00 -1.47935e-01
       C  4.44646e+00 -2.49010e+00 -9.38136e-02
       C  5.86374e+00 -2.52846e+00 -7.23613e-02
       C  3.66584e+00 -3.73665e+00  6.13411e-02
       C  6.52304e+00 -3.80505e+00 -1.82048e-01
       C  8.68718e+00 -9.92713e+00 -1.00237e-01
       C  1.01219e+01 -9.87369e+00 -2.62703e-02
       C  7.97588e+00 -1.11312e+01 -8.63886e-02
       C  1.08055e+01 -1.11803e+01  4.38380e-02
       C  8.69200e+00 -7.54128e+00 -2.39940e-01
       C  1.01321e+01 -7.46773e+00 -1.30952e-01
       C  7.96731e+00 -8.70555e+00 -1.80809e-01
       C  1.08529e+01 -8.64552e+00 -8.69262e-02
       C  8.72403e+00 -4.98079e+00 -1.94701e-01
       C  1.01632e+01 -4.98289e+00 -1.04382e-01
       C  7.97446e+00 -6.22365e+00 -3.20682e-01
       C  1.08212e+01 -6.24468e+00 -9.11285e-02
       C  8.70520e+00 -2.47457e+00 -2.19132e-02
       C  1.01678e+01 -2.44684e+00 -3.78308e-02
       C  7.97101e+00 -3.72772e+00 -2.31664e-01
       C  1.08790e+01 -3.69803e+00 -5.26607e-02
       C  1.29490e+01 -9.91099e+00 -1.45054e-01
       C  1.43263e+01 -9.91887e+00 -2.89082e-01
       C  1.22361e+01 -1.11652e+01 -2.05816e-01
       C  1.50598e+01 -1.11492e+01 -1.41077e-01
       C  1.29785e+01 -7.55932e+00 -3.44620e-01
       C  1.44095e+01 -7.49039e+00 -4.10864e-01
       C  1.22139e+01 -8.76205e+00 -2.48769e-01
       C  1.51522e+01 -8.76425e+00 -2.23702e-01
       C  1.30851e+01 -4.93351e+00 -1.55740e-01
       C  1.44498e+01 -5.09077e+00 -4.42123e-02
       C  1.22561e+01 -6.22501e+00 -1.87984e-01
       C  1.51473e+01 -6.26946e+00 -1.85126e-01
       C  1.30318e+01 -2.48359e+00 -3.38967e-02
       C  1.44179e+01 -2.46950e+00 -4.82305e-02
       C  1.22623e+01 -3.68905e+00 -1.28114e-01
       C  1.51673e+01 -3.67640e+00 -4.56342e-02
       C  1.44402e-01 -9.99438e+00 -7.24461e-02
       C  1.56098e+00 -9.93226e+00 -3.68921e-02
       C -5.78181e-01 -1.11739e+01 -8.76254e-03
       C  2.26669e+00 -1.11664e+01 -1.90301e-01
       C  1.08854e-01 -7.48123e+00 -2.18039e-01
       C  1.54817e+00 -7.43107e+00 -2.50274e-01
       C -5.59502e-01 -8.77185e+00 -1.64449e-01
       C  2.25838e+00 -8.76318e+00 -1.51603e-01
       C  2.07541e-01 -4.94245e+00 -2.11492e-01
       C  1.57145e+00 -4.98532e+00 -2.23800e-01
       C -5.47604e-01 -6.24248e+00 -2.93850e-01
       C  2.25258e+00 -6.19562e+00 -7.52321e-02
       C  1.97632e-01 -2.54876e+00 -1.86374e-01
       C  1.55149e+00 -2.51626e+00 -2.78213e-02
       C -5.80457e-01 -3.80311e+00 -2.09055e-01
       C  2.22220e+00 -3.76797e+00 -1.50353e-01
       C  4.40570e+00 -8.14629e-02 -6.46776e-02
       C  5.77975e+00 -4.23614e-02 -1.84857e-01
       C  3.63094e+00 -1.40460e+00 -1.13011e-01
       C  6.56185e+00 -1.31108e+00 -1.93232e-01
       C  4.40530e+00 -1.74412e+01 -6.06196e-02
       C  5.85401e+00 -1.74318e+01  2.74910e-02
       C  3.73230e+00 -1.86572e+01 -1.09933e-02
       C  6.56199e+00 -1.86489e+01  9.29557e-03
       C  4.46710e+00 -1.49386e+01 -6.81234e-02
       C  5.93195e+00 -1.49016e+01  1.14863e-01
       C  3.74765e+00 -1.61367e+01 -1.65357e-01
       C  6.52604e+00 -1.62080e+01  1.55800e-01
       C  4.38008e+00 -1.24861e+01 -2.82772e-02
       C  5.81616e+00 -1.24462e+01 -3.11161e-03
       C  3.73335e+00 -1.37443e+01 -1.55164e-01
       C  6.52758e+00 -1.36999e+01  6.88789e-02
       C  8.73469e+00 -6.64912e-02  2.35864e-02
       C  1.01965e+01 -6.96534e-03 -1.58866e-02
       C  7.99384e+00 -1.20749e+00 -8.26839e-02
       C  1.09431e+01 -1.30771e+00  9.65435e-03
       C  8.80585e+00 -1.73838e+01 -5.31829e-02
       C  1.02282e+01 -1.72829e+01 -6.51076e-02
       C  8.04452e+00 -1.86133e+01  8.34805e-02
       C  1.08874e+01 -1.86379e+01 -2.36195e-02
       C  8.65689e+00 -1.49575e+01  1.24720e-01
       C  1.01470e+01 -1.48624e+01  3.04031e-02
       C  8.02857e+00 -1.61751e+01  2.71628e-02
       C  1.08710e+01 -1.61096e+01 -1.52072e-01
       C  8.66258e+00 -1.23946e+01 -6.77447e-02
       C  1.00733e+01 -1.24528e+01 -6.64256e-02
       C  7.98422e+00 -1.35857e+01  1.00149e-01
       C  1.08877e+01 -1.36250e+01  1.03642e-01
       C  1.30021e+01 -2.61618e-02 -7.94490e-02
       C  1.44250e+01 -7.02878e-02  2.43631e-02
       C  1.23447e+01 -1.19568e+00 -8.74774e-02
       C  1.51700e+01 -1.31275e+00  1.32695e-01
       C  1.30692e+01 -1.73533e+01  5.18394e-02
       C  1.44727e+01 -1.73772e+01 -1.59535e-01
       C  1.23097e+01 -1.85202e+01  1.32667e-02
       C  1.51264e+01 -1.85163e+01 -1.38121e-01
       C  1.30288e+01 -1.49308e+01  2.14038e-02
       C  1.44148e+01 -1.49403e+01 -1.04659e-01
       C  1.22727e+01 -1.61492e+01  1.70875e-02
       C  1.51560e+01 -1.60837e+01 -1.11065e-01
       C  1.29754e+01 -1.24073e+01 -1.88444e-01
       C  1.44904e+01 -1.24164e+01 -4.55111e-02
       C  1.22916e+01 -1.36413e+01 -6.05500e-02
       C  1.51446e+01 -1.36169e+01 -1.11468e-01
       C  1.33950e-01 -3.77990e-02 -2.61440e-02
       C  1.63512e+00 -5.11735e-02 -3.72228e-02
       C -4.86162e-01 -1.31086e+00 -1.01321e-01
       C  2.24601e+00 -1.35725e+00 -6.51410e-02
       C  2.46703e-01 -1.73770e+01 -1.65401e-01
       C  1.57985e+00 -1.74144e+01  3.13329e-02
       C -5.29158e-01 -1.86324e+01 -1.22137e-01
       C  2.25171e+00 -1.86751e+01 -1.48070e-02
       C  1.48290e-01 -1.48458e+01 -1.90689e-01
       C  1.63299e+00 -1.49658e+01 -1.51530e-01
       C -5.31232e-01 -1.60640e+01 -1.07745e-01
       C  2.32267e+00 -1.61973e+01 -1.41336e-01
       C  1.80931e-01 -1.24099e+01 -9.87773e-02
       C  1.55498e+00 -1.25244e+01 -1.40085e-01
       C -5.66598e-01 -1.36857e+01 -1.88939e-01
       C  2.32545e+00 -1.37169e+01 -1.27592e-01
       H  5.89671e+00 -1.02851e+01  5.43640e+00
       C  5.29972e+00 -9.50448e+00  5.00092e+00
       C  5.88341e+00 -8.25240e+00  5.04321e+00
       H  6.94422e+00 -8.03812e+00  5.37619e+00
       C  5.12540e+00 -7.14295e+00  4.53680e+00
       H  5.47675e+00 -6.24514e+00  4.57456e+00
       C  3.97322e+00 -7.39944e+00  3.96386e+00
       H  3.33278e+00 -6.41620e+00  3.86155e+00
       C  3.54973e+00 -8.66367e+00  3.69526e+00
       H  2.52533e+00 -8.68340e+00  3.10937e+00
       C  4.16009e+00 -9.69326e+00  4.22560e+00
       H  3.79314e+00 -1.07507e+01  4.08542e+00
