140
# CELL(abcABC):   17.14040    19.79200    30.00000    90.00000    90.00000    90.00000  Step:           0  Bead:       1 positions{angstrom}  cell{angstrom}
       C  4.40012e+00 -9.99381e+00 -1.00121e-01
       C  5.86410e+00 -9.99359e+00 -4.12958e-02
       C  3.69851e+00 -1.11673e+01 -3.05500e-02
       C  6.58243e+00 -1.11644e+01 -2.03208e-01
       C  4.47236e+00 -7.50152e+00 -5.99517e-02
       C  5.84926e+00 -7.52385e+00 -1.71204e-01
       C  3.70022e+00 -8.82034e+00 -1.16003e-01
       C  6.55887e+00 -8.74904e+00 -2.16009e-01
       C  4.41309e+00 -5.08982e+00 -1.99734e-01
       C  5.85321e+00 -5.05412e+00 -2.13509e-01
       C  3.68491e+00 -6.27824e+00 -1.11149e-01
       C  6.54309e+00 -6.20851e+00 -1.19782e-01
       C  4.40724e+00 -2.55945e+00 -1.13972e-01
       C  5.91984e+00 -2.51330e+00 -2.73231e-01
       C  3.68686e+00 -3.85379e+00 -2.79679e-01
       C  6.53131e+00 -3.82079e+00 -1.93135e-01
       C  8.73939e+00 -9.95887e+00 -1.10318e-01
       C  1.00999e+01 -9.96053e+00 -6.68321e-02
       C  7.93968e+00 -1.11957e+01  6.18551e-02
       C  1.08940e+01 -1.11967e+01 -4.23823e-02
       C  8.73011e+00 -7.54646e+00 -1.21442e-01
       C  1.02635e+01 -7.45213e+00 -1.05309e-01
       C  8.03475e+00 -8.76704e+00 -2.03505e-01
       C  1.08761e+01 -8.69951e+00 -2.54266e-01
       C  8.71595e+00 -5.01287e+00 -6.73016e-02
       C  1.01928e+01 -4.98566e+00 -2.33728e-01
       C  8.04609e+00 -6.27166e+00 -1.50681e-01
       C  1.08536e+01 -6.23521e+00 -2.13292e-01
       C  8.66740e+00 -2.50912e+00 -2.07262e-01
       C  1.01140e+01 -2.51874e+00 -2.19866e-01
       C  7.90767e+00 -3.81497e+00 -2.38974e-01
       C  1.09004e+01 -3.68191e+00 -5.25064e-02
       C  1.29424e+01 -9.93384e+00 -2.14992e-01
       C  1.44654e+01 -9.90301e+00 -1.51850e-01
       C  1.23364e+01 -1.11648e+01  6.55763e-02
       C  1.51226e+01 -1.11838e+01 -1.28845e-01
       C  1.29972e+01 -7.47243e+00 -2.96750e-03
       C  1.44038e+01 -7.46661e+00 -1.63577e-01
       C  1.22725e+01 -8.72097e+00 -2.09136e-01
       C  1.51156e+01 -8.62113e+00 -1.61407e-01
       C  1.30405e+01 -5.02681e+00 -1.42600e-01
       C  1.44620e+01 -4.98592e+00 -1.56356e-01
       C  1.23165e+01 -6.19589e+00 -1.70092e-01
       C  1.51195e+01 -6.24158e+00 -1.26432e-01
       C  1.29747e+01 -2.52430e+00 -4.13982e-02
       C  1.44829e+01 -2.51221e+00 -7.31479e-02
       C  1.23161e+01 -3.80885e+00 -1.16549e-01
       C  1.51223e+01 -3.68695e+00 -5.14797e-02
       C  6.62890e-02 -9.95022e+00 -2.32790e-01
       C  1.49214e+00 -9.99992e+00 -3.45802e-02
       C -6.56030e-01 -1.11646e+01 -1.75029e-01
       C  2.29111e+00 -1.12573e+01 -9.82723e-03
       C  1.47476e-01 -7.45106e+00 -2.82365e-02
       C  1.56319e+00 -7.49434e+00 -1.02897e-01
       C -5.92567e-01 -8.77717e+00 -1.73671e-01
       C  2.30049e+00 -8.76046e+00 -9.03298e-02
       C  1.88335e-01 -5.00947e+00  6.38113e-03
       C  1.57248e+00 -4.92872e+00 -8.17649e-02
       C -5.66004e-01 -6.28736e+00 -1.32794e-01
       C  2.39219e+00 -6.22626e+00  8.51519e-03
       C  1.54816e-01 -2.52207e+00  3.98794e-02
       C  1.50141e+00 -2.53819e+00 -1.75698e-02
       C -5.81973e-01 -3.78430e+00 -4.04616e-02
       C  2.25276e+00 -3.79357e+00 -1.64195e-01
       C  4.45666e+00 -9.65213e-02 -7.01695e-02
       C  5.80703e+00 -1.56749e-01 -1.98439e-02
       C  3.76570e+00 -1.22607e+00 -1.09450e-01
       C  6.60445e+00 -1.32858e+00 -6.43392e-02
       C  4.42117e+00 -1.74047e+01 -6.75903e-02
       C  5.86812e+00 -1.73359e+01 -5.94581e-02
       C  3.73278e+00 -1.85337e+01 -1.57349e-01
       C  6.57161e+00 -1.85430e+01  1.72347e-01
       C  4.43466e+00 -1.48802e+01 -3.77890e-03
       C  5.83201e+00 -1.49207e+01 -5.99846e-02
       C  3.65018e+00 -1.60636e+01 -6.33742e-02
       C  6.60830e+00 -1.61389e+01  6.67321e-02
       C  4.43574e+00 -1.24045e+01 -1.08480e-01
       C  5.89250e+00 -1.24341e+01 -2.04896e-01
       C  3.66688e+00 -1.37320e+01 -6.67585e-02
       C  6.63896e+00 -1.36042e+01 -1.40698e-01
       C  8.70796e+00 -7.11489e-02 -4.16261e-02
       C  1.01684e+01 -5.42371e-02 -1.07333e-01
       C  7.97521e+00 -1.32019e+00 -5.80462e-03
       C  1.07595e+01 -1.32791e+00 -1.24807e-01
       C  8.73190e+00 -1.73049e+01  2.55556e-01
       C  1.01188e+01 -1.73144e+01  1.27402e-01
       C  7.97051e+00 -1.87064e+01  4.14209e-02
       C  1.07958e+01 -1.86196e+01 -4.97548e-02
       C  8.67951e+00 -1.48976e+01 -9.18272e-03
       C  1.02088e+01 -1.49486e+01 -4.84796e-02
       C  8.01979e+00 -1.61154e+01  4.37333e-02
       C  1.08869e+01 -1.61711e+01 -1.50191e-02
       C  8.77922e+00 -1.24421e+01  1.26417e-01
       C  1.01205e+01 -1.23516e+01 -2.97610e-02
       C  8.00074e+00 -1.36423e+01 -6.37514e-02
       C  1.09014e+01 -1.36659e+01 -9.25604e-02
       C  1.30124e+01 -1.00052e-02 -1.06683e-01
       C  1.43763e+01 -6.02570e-02  4.38375e-03
       C  1.23080e+01 -1.27567e+00  5.28621e-03
       C  1.50691e+01 -1.24615e+00 -4.64040e-02
       C  1.29789e+01 -1.73965e+01 -1.12529e-01
       C  1.44524e+01 -1.73756e+01 -2.23580e-02
       C  1.21676e+01 -1.85686e+01 -1.46362e-01
       C  1.51198e+01 -1.85814e+01  1.93252e-02
       C  1.30220e+01 -1.49514e+01 -1.84240e-01
       C  1.44249e+01 -1.49251e+01 -9.82051e-02
       C  1.22428e+01 -1.61777e+01 -1.34431e-01
       C  1.51246e+01 -1.61892e+01 -1.62220e-01
       C  1.30260e+01 -1.23737e+01  1.34263e-02
       C  1.44243e+01 -1.23608e+01 -9.27753e-02
       C  1.23092e+01 -1.36051e+01 -8.08681e-02
       C  1.50318e+01 -1.36431e+01 -8.28619e-02
       C  1.50330e-01 -5.79018e-02  3.82632e-02
       C  1.52768e+00 -6.57047e-03 -5.67284e-02
       C -6.43575e-01 -1.29127e+00  2.10559e-02
       C  2.25668e+00 -1.24913e+00 -6.00698e-02
       C  1.38872e-01 -1.73001e+01 -2.37966e-01
       C  1.54174e+00 -1.73064e+01 -1.24105e-01
       C -6.52173e-01 -1.86015e+01 -7.48198e-02
       C  2.25771e+00 -1.86369e+01 -1.99731e-01
       C  1.15355e-01 -1.48933e+01 -1.57483e-01
       C  1.55150e+00 -1.49148e+01 -9.59693e-02
       C -6.09699e-01 -1.61381e+01 -1.43650e-01
       C  2.28725e+00 -1.61127e+01 -1.52228e-01
       C  1.90212e-01 -1.24760e+01 -8.14883e-02
       C  1.48885e+00 -1.24062e+01  7.10133e-02
       C -6.75381e-01 -1.37139e+01 -1.37142e-01
       C  2.28037e+00 -1.37816e+01  1.36527e-02
       H  5.79695e+00 -1.03029e+01  5.64525e+00
       C  5.47739e+00 -9.51599e+00  5.03201e+00
       C  5.88216e+00 -8.11319e+00  5.12141e+00
       H  6.98643e+00 -7.89304e+00  5.56125e+00
       C  5.01471e+00 -7.10555e+00  4.60723e+00
       H  5.19567e+00 -5.98883e+00  5.07400e+00
       C  3.97125e+00 -7.40756e+00  3.87755e+00
       H  3.26062e+00 -6.66768e+00  3.55110e+00
       C  3.72625e+00 -8.73751e+00  3.50795e+00
       H  2.77305e+00 -8.95106e+00  2.83318e+00
       C  4.49223e+00 -9.86039e+00  4.04676e+00
       H  4.28060e+00 -1.09033e+01  3.75717e+00
140
# CELL(abcABC):   17.14040    19.79200    30.00000    90.00000    90.00000    90.00000  Step:         100  Bead:       1 positions{angstrom}  cell{angstrom}
       C  4.41181e+00 -9.98299e+00 -1.04455e-01
       C  5.83438e+00 -9.87174e+00 -4.71501e-02
       C  3.69764e+00 -1.12116e+01 -1.33213e-01
       C  6.53094e+00 -1.12094e+01 -9.90269e-02
       C  4.41132e+00 -7.45086e+00 -9.06816e-02
       C  5.81828e+00 -7.36541e+00 -1.39436e-01
       C  3.66895e+00 -8.68783e+00 -4.15575e-02
       C  6.51394e+00 -8.75177e+00 -1.31352e-01
       C  4.40063e+00 -4.96597e+00  3.90793e-02
       C  5.80087e+00 -4.99713e+00 -2.29653e-01
       C  3.70152e+00 -6.24696e+00 -6.96031e-02
       C  6.58579e+00 -6.23728e+00 -2.18870e-01
       C  4.46648e+00 -2.50787e+00 -9.33944e-03
       C  5.87900e+00 -2.48581e+00 -8.36303e-02
       C  3.72876e+00 -3.79084e+00  4.20179e-02
       C  6.57337e+00 -3.73688e+00 -1.78215e-01
       C  8.75258e+00 -9.94845e+00 -1.06153e-01
       C  1.02031e+01 -9.82691e+00  5.57017e-02
       C  8.00274e+00 -1.11450e+01 -9.82780e-02
       C  1.08648e+01 -1.11158e+01  5.10917e-02
       C  8.58423e+00 -7.40853e+00 -3.02635e-01
       C  1.00972e+01 -7.39274e+00 -1.57716e-01
       C  7.91387e+00 -8.67242e+00 -6.09602e-02
       C  1.08602e+01 -8.63213e+00 -1.23065e-01
       C  8.68779e+00 -5.02572e+00 -7.53112e-02
       C  1.01108e+01 -4.89383e+00 -7.52002e-02
       C  8.01716e+00 -6.19167e+00 -2.32261e-01
       C  1.08197e+01 -6.21580e+00  4.50238e-03
       C  8.77473e+00 -2.50019e+00 -9.94190e-02
       C  1.01626e+01 -2.52969e+00 -4.33737e-02
       C  7.88499e+00 -3.75859e+00 -1.33151e-01
       C  1.09152e+01 -3.72278e+00 -1.08929e-01
       C  1.29619e+01 -9.93984e+00 -1.77445e-01
       C  1.43969e+01 -9.96646e+00 -1.90372e-01
       C  1.22420e+01 -1.11902e+01 -2.41292e-01
       C  1.51765e+01 -1.11941e+01 -1.35150e-01
       C  1.29723e+01 -7.49376e+00 -2.81327e-01
       C  1.43826e+01 -7.47862e+00 -3.82931e-01
       C  1.22641e+01 -8.67450e+00 -2.39966e-01
       C  1.50772e+01 -8.72432e+00 -1.44625e-01
       C  1.29560e+01 -4.98352e+00 -1.32264e-01
       C  1.44176e+01 -4.98443e+00 -3.06419e-02
       C  1.22368e+01 -6.25823e+00 -1.96926e-01
       C  1.51249e+01 -6.23582e+00 -1.87248e-01
       C  1.31184e+01 -2.51423e+00 -2.49041e-02
       C  1.44744e+01 -2.51927e+00  4.72064e-03
       C  1.22365e+01 -3.81314e+00 -1.57642e-01
       C  1.51943e+01 -3.79429e+00 -1.53737e-02
       C  1.36435e-01 -1.00060e+01 -3.51336e-02
       C  1.49488e+00 -9.96988e+00 -5.82311e-02
       C -5.81374e-01 -1.11366e+01 -9.03677e-02
       C  2.29822e+00 -1.11678e+01 -1.63371e-01
       C  4.81396e-02 -7.45524e+00 -2.23689e-01
       C  1.66778e+00 -7.51522e+00 -3.34739e-01
       C -5.99205e-01 -8.80118e+00 -1.94465e-01
       C  2.25217e+00 -8.73831e+00 -7.65812e-02
       C  6.94895e-02 -5.08944e+00 -2.16664e-01
       C  1.56660e+00 -4.94263e+00 -2.83876e-01
       C -6.15692e-01 -6.29580e+00 -2.78769e-01
       C  2.31692e+00 -6.21357e+00 -1.05144e-01
       C  1.04364e-01 -2.55821e+00 -1.75105e-01
       C  1.67412e+00 -2.57630e+00 -1.55487e-01
       C -5.91556e-01 -3.78800e+00 -1.92428e-01
       C  2.30502e+00 -3.82100e+00 -5.35033e-02
       C  4.37278e+00 -6.54295e-02 -1.12323e-02
       C  5.86433e+00 -7.73789e-02 -8.92018e-02
       C  3.69311e+00 -1.31231e+00 -1.02868e-01
       C  6.66595e+00 -1.30035e+00 -1.60578e-01
       C  4.40080e+00 -1.74072e+01 -1.76214e-01
       C  5.83716e+00 -1.74031e+01  2.46910e-02
       C  3.64375e+00 -1.86857e+01 -6.87519e-02
       C  6.62524e+00 -1.86483e+01 -3.73466e-02
       C  4.40012e+00 -1.49047e+01 -8.38718e-02
       C  5.85705e+00 -1.49624e+01  8.61845e-02
       C  3.77212e+00 -1.60755e+01 -1.53891e-01
       C  6.65886e+00 -1.62171e+01  1.04338e-01
       C  4.33307e+00 -1.24564e+01 -2.75195e-02
       C  5.83814e+00 -1.25086e+01  4.29255e-02
       C  3.75781e+00 -1.36999e+01 -1.76582e-01
       C  6.52186e+00 -1.36915e+01  7.64295e-02
       C  8.79428e+00 -1.71570e-02  1.35155e-02
       C  1.01815e+01 -9.97125e-02  3.35971e-02
       C  8.01844e+00 -1.23689e+00 -9.49281e-02
       C  1.09118e+01 -1.33161e+00  1.30814e-02
       C  8.68586e+00 -1.74150e+01 -5.69488e-02
       C  1.01384e+01 -1.72998e+01 -5.07244e-02
       C  8.02507e+00 -1.85760e+01  8.04698e-02
       C  1.08849e+01 -1.84809e+01 -2.70856e-02
       C  8.68998e+00 -1.49739e+01  1.66378e-01
       C  1.01905e+01 -1.49176e+01  6.77795e-02
       C  7.98637e+00 -1.61516e+01 -2.81151e-02
       C  1.09079e+01 -1.60547e+01 -1.25790e-01
       C  8.62924e+00 -1.24518e+01 -2.69693e-02
       C  1.00726e+01 -1.23734e+01  7.29940e-02
       C  8.00293e+00 -1.36276e+01  4.10050e-02
       C  1.08766e+01 -1.36155e+01  9.91548e-02
       C  1.29695e+01 -7.16612e-02 -1.58547e-01
       C  1.44898e+01 -7.39102e-02  3.22545e-02
       C  1.23098e+01 -1.26400e+00 -1.13382e-01
       C  1.51405e+01 -1.23624e+00  1.94720e-02
       C  1.30450e+01 -1.73388e+01  3.31546e-02
       C  1.44892e+01 -1.74040e+01 -2.28447e-01
       C  1.23173e+01 -1.85667e+01  6.12776e-03
       C  1.50633e+01 -1.85395e+01 -3.96205e-02
       C  1.30044e+01 -1.48898e+01 -2.38386e-03
       C  1.44922e+01 -1.49106e+01 -5.95441e-02
       C  1.22895e+01 -1.61260e+01  1.41174e-02
       C  1.51180e+01 -1.61856e+01 -1.03043e-01
       C  1.29972e+01 -1.24314e+01 -1.99914e-01
       C  1.43282e+01 -1.23450e+01 -6.49880e-02
       C  1.23058e+01 -1.36335e+01 -2.45071e-02
       C  1.50935e+01 -1.36836e+01 -1.16404e-01
       C  1.69869e-01 -1.45845e-02 -5.31880e-02
       C  1.62851e+00 -2.44689e-02 -3.05080e-02
       C -5.33031e-01 -1.26095e+00 -1.39543e-01
       C  2.24666e+00 -1.28525e+00 -5.91976e-02
       C  2.56181e-01 -1.73872e+01 -1.35416e-01
       C  1.63273e+00 -1.73945e+01  1.04572e-01
       C -5.87122e-01 -1.86038e+01 -1.06290e-01
       C  2.31305e+00 -1.86654e+01 -3.29287e-03
       C  2.10451e-01 -1.49884e+01 -1.89041e-01
       C  1.59581e+00 -1.49707e+01 -1.75435e-01
       C -5.75889e-01 -1.61839e+01 -1.21532e-01
       C  2.30579e+00 -1.62299e+01 -8.30810e-02
       C  1.47834e-01 -1.24840e+01 -6.95809e-02
       C  1.63626e+00 -1.24868e+01 -1.28176e-01
       C -6.01215e-01 -1.36419e+01 -2.05018e-01
       C  2.28907e+00 -1.36921e+01 -1.45583e-01
       H  6.03226e+00 -1.04023e+01  5.38789e+00
       C  5.33425e+00 -9.51922e+00  4.94682e+00
       C  5.88599e+00 -8.22919e+00  5.04925e+00
       H  6.85332e+00 -7.81909e+00  5.30417e+00
       C  5.17150e+00 -7.14895e+00  4.62418e+00
       H  5.75155e+00 -6.22803e+00  4.71002e+00
       C  4.01237e+00 -7.36707e+00  3.83181e+00
       H  3.29054e+00 -6.45889e+00  3.68292e+00
       C  3.44878e+00 -8.61647e+00  3.72298e+00
       H  2.49099e+00 -8.87101e+00  3.02320e+00
       C  4.16880e+00 -9.65025e+00  4.24130e+00
       H  3.90773e+00 -1.07847e+01  4.01965e+00
