140
# CELL(abcABC):   17.14040    19.79200    30.00000    90.00000    90.00000    90.00000  Step:           0  Bead:      10 positions{angstrom}  cell{angstrom}
       C  4.44107e+00 -1.00284e+01 -1.23999e-01
       C  5.84610e+00 -9.91053e+00 -1.56119e-01
       C  3.73836e+00 -1.11928e+01 -9.15963e-02
       C  6.62843e+00 -1.11985e+01 -2.14370e-01
       C  4.50946e+00 -7.52266e+00 -3.43033e-02
       C  5.89502e+00 -7.55230e+00 -1.45023e-01
       C  3.67513e+00 -8.76139e+00 -8.72252e-02
       C  6.55120e+00 -8.78286e+00 -2.76320e-01
       C  4.44166e+00 -4.97822e+00 -1.59011e-01
       C  5.82155e+00 -4.99286e+00 -1.69400e-01
       C  3.66073e+00 -6.20424e+00 -1.09240e-01
       C  6.56715e+00 -6.28626e+00 -1.71561e-01
       C  4.49400e+00 -2.47698e+00 -1.47235e-01
       C  5.86366e+00 -2.55438e+00 -3.04417e-01
       C  3.76523e+00 -3.76659e+00 -2.64750e-01
       C  6.56770e+00 -3.76991e+00 -2.91716e-01
       C  8.77235e+00 -9.95835e+00 -1.22151e-01
       C  1.01471e+01 -9.94933e+00 -3.12811e-02
       C  7.97706e+00 -1.11845e+01  6.50103e-02
       C  1.08848e+01 -1.12075e+01 -1.21286e-01
       C  8.74322e+00 -7.46900e+00 -1.87458e-01
       C  1.01892e+01 -7.41749e+00 -1.36114e-01
       C  7.97424e+00 -8.68333e+00 -1.75843e-01
       C  1.08417e+01 -8.72271e+00 -2.56674e-01
       C  8.69479e+00 -4.98171e+00 -2.45052e-02
       C  1.01349e+01 -4.97459e+00 -1.46051e-01
       C  8.05537e+00 -6.26618e+00 -1.28729e-01
       C  1.08729e+01 -6.20601e+00 -2.19488e-01
       C  8.62910e+00 -2.46205e+00 -2.36249e-01
       C  1.00722e+01 -2.54384e+00 -2.28744e-01
       C  7.97252e+00 -3.82239e+00 -2.57379e-01
       C  1.08644e+01 -3.74730e+00 -1.31659e-02
       C  1.29871e+01 -9.87832e+00 -1.29565e-01
       C  1.44134e+01 -9.85932e+00 -1.89560e-01
       C  1.23153e+01 -1.11340e+01 -1.91146e-02
       C  1.51452e+01 -1.11210e+01 -2.29225e-01
       C  1.30599e+01 -7.51392e+00  4.68320e-02
       C  1.44228e+01 -7.41457e+00 -1.16555e-01
       C  1.22555e+01 -8.61157e+00 -1.96805e-01
       C  1.51511e+01 -8.70667e+00 -1.39718e-01
       C  1.29564e+01 -5.04551e+00 -1.66675e-01
       C  1.43775e+01 -4.98155e+00 -1.36874e-01
       C  1.22639e+01 -6.26286e+00 -9.16393e-02
       C  1.50821e+01 -6.26027e+00 -1.88510e-01
       C  1.30618e+01 -2.51791e+00 -1.44073e-01
       C  1.44589e+01 -2.47263e+00 -1.23415e-01
       C  1.22960e+01 -3.74921e+00 -1.07096e-01
       C  1.51914e+01 -3.70486e+00 -7.30189e-02
       C  1.39374e-01 -9.94576e+00 -1.52806e-01
       C  1.57887e+00 -9.98331e+00 -9.17067e-02
       C -6.93771e-01 -1.12677e+01 -1.75102e-01
       C  2.34298e+00 -1.12818e+01 -5.53757e-02
       C  1.66412e-01 -7.47764e+00 -2.17154e-02
       C  1.54936e+00 -7.52128e+00 -1.07182e-01
       C -6.47586e-01 -8.68543e+00 -1.91218e-01
       C  2.23953e+00 -8.77857e+00 -2.20273e-02
       C  1.28680e-01 -5.02325e+00 -9.43929e-02
       C  1.60081e+00 -4.92437e+00 -4.44980e-02
       C -5.73904e-01 -6.26462e+00 -1.49506e-01
       C  2.28863e+00 -6.26405e+00 -2.01151e-03
       C  1.06859e-01 -2.52486e+00  2.57639e-02
       C  1.51531e+00 -2.60985e+00  6.02441e-02
       C -5.86469e-01 -3.74550e+00 -1.41807e-01
       C  2.31713e+00 -3.75553e+00 -1.35234e-01
       C  4.37888e+00 -2.19347e-02 -2.31532e-02
       C  5.85082e+00 -7.19000e-02 -3.08362e-02
       C  3.74686e+00 -1.35570e+00 -1.41187e-02
       C  6.51979e+00 -1.32041e+00 -5.93107e-02
       C  4.40282e+00 -1.73347e+01 -4.45920e-02
       C  5.90005e+00 -1.73579e+01 -2.73396e-02
       C  3.69352e+00 -1.86070e+01 -1.53398e-01
       C  6.38987e+00 -1.85498e+01  1.64907e-01
       C  4.46221e+00 -1.48920e+01 -3.16032e-02
       C  5.85696e+00 -1.48848e+01 -5.55530e-03
       C  3.66006e+00 -1.60596e+01 -6.16804e-02
       C  6.59572e+00 -1.60988e+01  1.01712e-01
       C  4.45276e+00 -1.24260e+01 -4.97836e-02
       C  5.83640e+00 -1.23549e+01 -1.78703e-01
       C  3.66538e+00 -1.36659e+01 -2.45419e-03
       C  6.58782e+00 -1.37756e+01 -1.45856e-01
       C  8.72823e+00 -4.55647e-02 -5.69287e-02
       C  1.00736e+01  2.69766e-03 -6.82794e-02
       C  8.01488e+00 -1.28749e+00  2.24502e-02
       C  1.08706e+01 -1.32453e+00 -1.64405e-01
       C  8.65078e+00 -1.73593e+01  2.11003e-01
       C  1.01957e+01 -1.73803e+01  2.26492e-01
       C  8.01147e+00 -1.86466e+01  4.92581e-02
       C  1.08780e+01 -1.85396e+01 -1.11989e-01
       C  8.69153e+00 -1.48553e+01 -5.10448e-02
       C  1.02020e+01 -1.48655e+01 -4.01590e-02
       C  7.99912e+00 -1.61342e+01  1.55307e-01
       C  1.07893e+01 -1.61712e+01 -2.91852e-02
       C  8.72600e+00 -1.24412e+01  6.67090e-02
       C  1.02149e+01 -1.24695e+01 -2.02887e-02
       C  8.03137e+00 -1.36495e+01 -3.34106e-02
       C  1.08621e+01 -1.36299e+01 -4.22380e-03
       C  1.28448e+01 -2.54259e-02 -1.99509e-01
       C  1.42999e+01 -3.00770e-02 -3.15832e-02
       C  1.22776e+01 -1.22385e+00 -2.53711e-02
       C  1.50966e+01 -1.26011e+00 -8.60228e-02
       C  1.30008e+01 -1.74219e+01 -1.16499e-01
       C  1.44551e+01 -1.73895e+01 -7.77217e-02
       C  1.22394e+01 -1.85463e+01 -1.20237e-01
       C  1.51523e+01 -1.85790e+01  5.45532e-02
       C  1.29980e+01 -1.49593e+01 -2.11108e-01
       C  1.44294e+01 -1.49243e+01 -2.27527e-01
       C  1.22862e+01 -1.60928e+01 -9.29602e-02
       C  1.51640e+01 -1.61134e+01 -2.16496e-01
       C  1.30032e+01 -1.23829e+01  3.41149e-02
       C  1.43828e+01 -1.24116e+01 -1.74045e-01
       C  1.23350e+01 -1.36818e+01 -4.22577e-02
       C  1.51413e+01 -1.37101e+01 -1.12749e-01
       C  1.58870e-01 -7.34870e-02  2.82364e-02
       C  1.45273e+00 -1.76360e-03 -5.21786e-02
       C -5.50480e-01 -1.28455e+00 -2.30702e-02
       C  2.28873e+00 -1.27595e+00 -4.10716e-02
       C  8.73187e-02 -1.73663e+01 -2.84361e-01
       C  1.51499e+00 -1.73418e+01 -1.62515e-01
       C -5.11376e-01 -1.85466e+01 -1.80293e-01
       C  2.29653e+00 -1.86881e+01 -1.20294e-01
       C  8.28516e-02 -1.49238e+01 -1.29135e-01
       C  1.55418e+00 -1.49157e+01 -1.03538e-01
       C -5.49132e-01 -1.61538e+01 -2.04750e-01
       C  2.26949e+00 -1.60648e+01 -1.91535e-01
       C  8.55712e-02 -1.24177e+01 -8.22598e-02
       C  1.61529e+00 -1.24653e+01  2.53727e-02
       C -6.60530e-01 -1.37443e+01 -8.53154e-02
       C  2.23622e+00 -1.36500e+01  5.89397e-02
       H  5.99510e+00 -1.01713e+01  5.65514e+00
       C  5.42257e+00 -9.48194e+00  4.98023e+00
       C  5.87795e+00 -8.08268e+00  5.13616e+00
       H  6.82210e+00 -7.74449e+00  5.30135e+00
       C  5.05201e+00 -7.14858e+00  4.67378e+00
       H  5.32642e+00 -6.11217e+00  4.99787e+00
       C  4.00082e+00 -7.40970e+00  3.85153e+00
       H  3.07537e+00 -6.64205e+00  3.59614e+00
       C  3.73379e+00 -8.78786e+00  3.53899e+00
       H  2.83891e+00 -9.17543e+00  2.93945e+00
       C  4.49312e+00 -9.81128e+00  4.08305e+00
       H  4.13167e+00 -1.09377e+01  3.63035e+00
140
# CELL(abcABC):   17.14040    19.79200    30.00000    90.00000    90.00000    90.00000  Step:         100  Bead:      10 positions{angstrom}  cell{angstrom}
       C  4.33756e+00 -9.95768e+00 -5.26419e-02
       C  5.77893e+00 -9.90836e+00  2.84285e-03
       C  3.76317e+00 -1.12363e+01 -1.03174e-01
       C  6.46959e+00 -1.11727e+01 -1.24157e-01
       C  4.42597e+00 -7.43940e+00 -5.30486e-02
       C  5.89193e+00 -7.49794e+00 -1.91591e-01
       C  3.71192e+00 -8.68478e+00 -4.91125e-02
       C  6.51103e+00 -8.66931e+00 -1.86817e-01
       C  4.45818e+00 -5.01511e+00  4.02417e-02
       C  5.83175e+00 -5.04853e+00 -2.13399e-01
       C  3.72365e+00 -6.17214e+00 -9.09548e-03
       C  6.54767e+00 -6.26562e+00 -1.78917e-01
       C  4.44770e+00 -2.47879e+00 -5.05096e-02
       C  5.85627e+00 -2.49085e+00 -9.37259e-02
       C  3.71371e+00 -3.77016e+00  2.38384e-02
       C  6.54409e+00 -3.77815e+00 -2.10124e-01
       C  8.72724e+00 -9.92198e+00 -6.54010e-02
       C  1.01420e+01 -9.86641e+00  6.27403e-02
       C  7.96667e+00 -1.11258e+01 -7.36810e-02
       C  1.08280e+01 -1.11839e+01 -2.77811e-02
       C  8.64476e+00 -7.50906e+00 -2.31366e-01
       C  1.01337e+01 -7.40396e+00 -7.76932e-02
       C  7.95408e+00 -8.71445e+00 -1.54215e-01
       C  1.08791e+01 -8.65213e+00 -7.33190e-02
       C  8.70643e+00 -4.98168e+00 -1.78502e-01
       C  1.01448e+01 -4.98310e+00 -1.33093e-01
       C  8.02286e+00 -6.16680e+00 -2.82969e-01
       C  1.08032e+01 -6.20884e+00 -1.01571e-01
       C  8.68850e+00 -2.49975e+00 -4.05865e-02
       C  1.01505e+01 -2.50809e+00 -5.06288e-02
       C  8.00340e+00 -3.75049e+00 -2.38803e-01
       C  1.08499e+01 -3.72036e+00 -6.81060e-02
       C  1.29656e+01 -9.91755e+00 -1.54117e-01
       C  1.43779e+01 -9.91491e+00 -2.61275e-01
       C  1.21969e+01 -1.11953e+01 -1.73206e-01
       C  1.50962e+01 -1.11366e+01 -1.17381e-01
       C  1.29308e+01 -7.54608e+00 -3.19293e-01
       C  1.43772e+01 -7.45146e+00 -4.23175e-01
       C  1.22445e+01 -8.77468e+00 -2.73933e-01
       C  1.51786e+01 -8.75721e+00 -1.77367e-01
       C  1.30870e+01 -4.95004e+00 -1.41308e-01
       C  1.44420e+01 -5.05025e+00 -5.98672e-02
       C  1.22429e+01 -6.24081e+00 -2.23568e-01
       C  1.51285e+01 -6.25454e+00 -1.66498e-01
       C  1.30281e+01 -2.47797e+00 -1.01327e-02
       C  1.44308e+01 -2.46379e+00 -2.68077e-02
       C  1.22616e+01 -3.70286e+00 -1.25623e-01
       C  1.51768e+01 -3.70363e+00 -4.76932e-02
       C  1.43674e-01 -1.00485e+01 -7.19372e-02
       C  1.54024e+00 -9.91768e+00 -4.82349e-02
       C -5.29084e-01 -1.11850e+01  3.29049e-02
       C  2.29388e+00 -1.11604e+01 -1.57053e-01
       C  1.28880e-01 -7.46593e+00 -2.61852e-01
       C  1.57083e+00 -7.45577e+00 -2.79580e-01
       C -5.67597e-01 -8.82852e+00 -1.91154e-01
       C  2.20119e+00 -8.73024e+00 -1.47558e-01
       C  1.52836e-01 -4.97178e+00 -2.05399e-01
       C  1.53035e+00 -4.99012e+00 -2.35538e-01
       C -5.67838e-01 -6.24536e+00 -3.08485e-01
       C  2.28543e+00 -6.15715e+00 -1.15816e-01
       C  1.59270e-01 -2.59381e+00 -1.97387e-01
       C  1.62590e+00 -2.48194e+00 -8.07301e-02
       C -5.61056e-01 -3.85739e+00 -1.87807e-01
       C  2.26083e+00 -3.75012e+00 -1.30882e-01
       C  4.42850e+00 -9.65758e-02 -8.04949e-02
       C  5.81153e+00 -4.90263e-02 -1.47194e-01
       C  3.63383e+00 -1.40395e+00 -1.54975e-01
       C  6.55392e+00 -1.29358e+00 -1.71968e-01
       C  4.39529e+00 -1.74541e+01 -6.62305e-02
       C  5.93239e+00 -1.73863e+01  5.07507e-03
       C  3.75031e+00 -1.86876e+01 -2.26880e-02
       C  6.59150e+00 -1.86578e+01 -3.30046e-02
       C  4.51281e+00 -1.48901e+01 -7.16949e-02
       C  5.92724e+00 -1.49266e+01  7.87905e-02
       C  3.76300e+00 -1.61521e+01 -1.52547e-01
       C  6.53919e+00 -1.61968e+01  1.67200e-01
       C  4.39214e+00 -1.24985e+01 -2.74156e-02
       C  5.80305e+00 -1.24534e+01  4.61820e-04
       C  3.72353e+00 -1.37367e+01 -1.28415e-01
       C  6.50297e+00 -1.36630e+01  1.06744e-01
       C  8.73831e+00 -4.69131e-02  3.11067e-02
       C  1.01790e+01 -2.49734e-02 -1.54380e-02
       C  7.96853e+00 -1.17976e+00 -7.15988e-02
       C  1.09716e+01 -1.27540e+00  1.34777e-02
       C  8.80372e+00 -1.73999e+01 -6.68747e-02
       C  1.01738e+01 -1.73243e+01 -1.86165e-02
       C  8.03695e+00 -1.86248e+01  9.04806e-02
       C  1.08905e+01 -1.85877e+01 -1.12545e-02
       C  8.67231e+00 -1.49622e+01  1.32272e-01
       C  1.01330e+01 -1.48854e+01  7.42874e-02
       C  8.05003e+00 -1.61566e+01 -7.20271e-03
       C  1.09097e+01 -1.60784e+01 -1.63710e-01
       C  8.67162e+00 -1.23996e+01 -5.90881e-02
       C  1.01023e+01 -1.24531e+01 -3.62659e-02
       C  7.99814e+00 -1.35816e+01  3.77719e-02
       C  1.08524e+01 -1.36474e+01  6.31890e-02
       C  1.29962e+01 -4.18089e-02 -9.82374e-02
       C  1.44100e+01 -3.06400e-02  5.58326e-02
       C  1.23167e+01 -1.24634e+00 -1.09685e-01
       C  1.51913e+01 -1.31975e+00  1.58587e-01
       C  1.30323e+01 -1.73888e+01  7.42148e-02
       C  1.44679e+01 -1.73499e+01 -1.51692e-01
       C  1.22828e+01 -1.85445e+01  4.66315e-03
       C  1.51554e+01 -1.85289e+01 -1.26139e-01
       C  1.30589e+01 -1.49044e+01 -3.42587e-04
       C  1.44368e+01 -1.49285e+01 -8.72243e-02
       C  1.22984e+01 -1.61310e+01  9.00846e-02
       C  1.51733e+01 -1.61261e+01 -1.29000e-01
       C  1.30280e+01 -1.23615e+01 -1.94415e-01
       C  1.44511e+01 -1.24262e+01 -4.57297e-02
       C  1.22877e+01 -1.36325e+01 -1.25180e-01
       C  1.51254e+01 -1.36432e+01 -1.13764e-01
       C  1.42732e-01 -5.08088e-02 -4.94622e-02
       C  1.62624e+00 -2.87303e-02 -1.94827e-02
       C -5.15499e-01 -1.27685e+00 -1.14583e-01
       C  2.26295e+00 -1.34564e+00 -5.26996e-02
       C  2.30319e-01 -1.73460e+01 -1.68238e-01
       C  1.58681e+00 -1.74353e+01  4.03616e-02
       C -5.29999e-01 -1.86188e+01 -1.36509e-01
       C  2.25196e+00 -1.86967e+01 -3.75437e-03
       C  1.41124e-01 -1.48774e+01 -1.95614e-01
       C  1.62646e+00 -1.49550e+01 -1.53582e-01
       C -5.55988e-01 -1.60876e+01 -1.05813e-01
       C  2.37940e+00 -1.61866e+01 -1.41899e-01
       C  1.43890e-01 -1.24396e+01 -6.74165e-02
       C  1.54452e+00 -1.25266e+01 -1.08412e-01
       C -5.84974e-01 -1.36688e+01 -1.58058e-01
       C  2.31503e+00 -1.37066e+01 -1.22648e-01
       H  5.87720e+00 -1.02585e+01  5.33351e+00
       C  5.30354e+00 -9.48378e+00  4.95940e+00
       C  5.85425e+00 -8.23332e+00  5.08433e+00
       H  6.91768e+00 -7.96091e+00  5.42785e+00
       C  5.12456e+00 -7.12606e+00  4.55520e+00
       H  5.57763e+00 -6.29887e+00  4.61670e+00
       C  3.97289e+00 -7.39682e+00  3.96048e+00
       H  3.37754e+00 -6.36278e+00  3.87072e+00
       C  3.54736e+00 -8.66912e+00  3.68206e+00
       H  2.50961e+00 -8.70639e+00  3.19061e+00
       C  4.16313e+00 -9.68084e+00  4.21911e+00
       H  3.86810e+00 -1.07194e+01  4.13346e+00
