140
# CELL(abcABC):   17.14040    19.79200    30.00000    90.00000    90.00000    90.00000  Step:           0  Bead:      22 positions{angstrom}  cell{angstrom}
       C  4.45737e+00 -9.98287e+00 -1.40805e-01
       C  5.88665e+00 -9.99555e+00 -1.09875e-01
       C  3.68175e+00 -1.12374e+01 -5.33311e-02
       C  6.56154e+00 -1.12025e+01 -2.57762e-01
       C  4.39092e+00 -7.47615e+00 -6.11154e-02
       C  5.89163e+00 -7.52919e+00 -2.65599e-01
       C  3.64157e+00 -8.69494e+00  1.27171e-02
       C  6.55474e+00 -8.79214e+00 -1.95288e-01
       C  4.42789e+00 -5.00937e+00 -1.52167e-01
       C  5.84638e+00 -5.01922e+00 -1.17322e-01
       C  3.74164e+00 -6.27239e+00 -1.17220e-01
       C  6.65344e+00 -6.29051e+00 -1.29327e-01
       C  4.40868e+00 -2.52174e+00 -1.42453e-01
       C  5.85135e+00 -2.54594e+00 -1.84749e-01
       C  3.70201e+00 -3.79152e+00 -2.67361e-01
       C  6.63246e+00 -3.71636e+00 -2.14087e-01
       C  8.72618e+00 -9.99532e+00 -1.55938e-01
       C  1.01587e+01 -9.95227e+00 -1.30850e-01
       C  8.09674e+00 -1.12252e+01  5.97827e-02
       C  1.09242e+01 -1.11138e+01 -8.56097e-02
       C  8.74799e+00 -7.54842e+00 -1.03117e-01
       C  1.02129e+01 -7.48680e+00 -1.19491e-01
       C  8.01263e+00 -8.72458e+00 -1.46275e-01
       C  1.09014e+01 -8.69986e+00 -2.74914e-01
       C  8.75106e+00 -4.97712e+00 -5.71340e-02
       C  1.01553e+01 -5.02664e+00 -1.68280e-01
       C  8.00943e+00 -6.22872e+00 -1.60062e-01
       C  1.08112e+01 -6.19968e+00 -2.30056e-01
       C  8.74697e+00 -2.54220e+00 -1.92675e-01
       C  1.01859e+01 -2.49431e+00 -3.14007e-01
       C  7.98949e+00 -3.78117e+00 -3.19689e-01
       C  1.08741e+01 -3.83485e+00 -5.58498e-02
       C  1.29144e+01 -9.92578e+00 -7.48364e-02
       C  1.43628e+01 -9.87758e+00 -2.20083e-01
       C  1.22326e+01 -1.11734e+01  6.12997e-02
       C  1.51579e+01 -1.11274e+01 -1.76875e-01
       C  1.30634e+01 -7.47065e+00 -4.93684e-02
       C  1.43808e+01 -7.37901e+00 -1.40735e-01
       C  1.23241e+01 -8.69957e+00 -1.88699e-01
       C  1.50675e+01 -8.64511e+00 -1.75351e-01
       C  1.30004e+01 -4.90487e+00 -6.95786e-02
       C  1.44502e+01 -5.01529e+00 -1.71162e-01
       C  1.22577e+01 -6.25028e+00 -1.31022e-01
       C  1.51937e+01 -6.26726e+00 -1.82136e-01
       C  1.30125e+01 -2.56138e+00  7.53137e-03
       C  1.44409e+01 -2.46677e+00 -1.66962e-01
       C  1.23555e+01 -3.77109e+00 -1.87377e-01
       C  1.51122e+01 -3.80756e+00 -6.07753e-02
       C  9.40631e-02 -9.98640e+00 -1.90518e-01
       C  1.51835e+00 -1.00015e+01 -8.16194e-03
       C -5.73777e-01 -1.12655e+01 -2.16284e-01
       C  2.31839e+00 -1.12984e+01 -4.04772e-02
       C  2.09868e-01 -7.48852e+00 -1.47686e-01
       C  1.63412e+00 -7.55925e+00 -1.03128e-01
       C -6.25859e-01 -8.76550e+00 -1.85928e-01
       C  2.20188e+00 -8.80029e+00 -5.54235e-02
       C  1.21565e-01 -4.92678e+00 -6.90855e-02
       C  1.64026e+00 -5.07681e+00 -3.67289e-02
       C -5.93913e-01 -6.26041e+00 -1.24608e-01
       C  2.26423e+00 -6.29347e+00  1.21578e-02
       C  1.24711e-01 -2.53412e+00  4.98619e-02
       C  1.54181e+00 -2.52738e+00  6.93428e-02
       C -5.48494e-01 -3.77569e+00 -6.30106e-02
       C  2.26790e+00 -3.79091e+00 -1.28349e-01
       C  4.39993e+00 -1.17328e-01 -5.23846e-02
       C  5.89756e+00 -4.82182e-02  1.30939e-02
       C  3.73526e+00 -1.33186e+00 -1.04433e-01
       C  6.57752e+00 -1.26898e+00 -9.84550e-02
       C  4.35712e+00 -1.73218e+01 -5.13034e-02
       C  5.84852e+00 -1.73891e+01 -1.28273e-02
       C  3.69203e+00 -1.85700e+01 -1.62462e-01
       C  6.48544e+00 -1.86604e+01  1.78989e-01
       C  4.41752e+00 -1.48659e+01  2.98193e-03
       C  5.80674e+00 -1.48585e+01  2.76576e-02
       C  3.75011e+00 -1.61998e+01 -2.51700e-02
       C  6.60901e+00 -1.61409e+01  9.03017e-02
       C  4.44266e+00 -1.24382e+01 -7.40487e-02
       C  5.86728e+00 -1.23493e+01 -1.68432e-01
       C  3.73092e+00 -1.36662e+01 -6.42161e-02
       C  6.58308e+00 -1.36514e+01 -1.29146e-01
       C  8.77391e+00 -3.26280e-02 -4.44932e-02
       C  1.01370e+01 -6.84263e-02 -7.01909e-02
       C  8.09767e+00 -1.26420e+00 -5.20372e-02
       C  1.07733e+01 -1.28975e+00 -1.55222e-01
       C  8.67049e+00 -1.74214e+01  2.66314e-01
       C  1.01169e+01 -1.73817e+01  2.64722e-01
       C  7.94398e+00 -1.86626e+01  3.63479e-02
       C  1.07637e+01 -1.86132e+01 -7.96114e-02
       C  8.70875e+00 -1.48892e+01 -2.82339e-02
       C  1.00660e+01 -1.48410e+01 -2.05575e-02
       C  7.99977e+00 -1.61294e+01  1.41552e-01
       C  1.08683e+01 -1.60680e+01 -3.81105e-02
       C  8.83717e+00 -1.24296e+01  3.10814e-02
       C  1.01860e+01 -1.23666e+01 -6.08253e-02
       C  8.06259e+00 -1.36372e+01  2.63747e-02
       C  1.09629e+01 -1.36401e+01 -1.70999e-02
       C  1.29738e+01 -4.36439e-02 -1.92726e-01
       C  1.42903e+01 -3.35928e-02  1.53764e-02
       C  1.22291e+01 -1.30612e+00  5.16775e-02
       C  1.51489e+01 -1.21901e+00 -8.39932e-02
       C  1.29807e+01 -1.73645e+01 -1.52088e-01
       C  1.43365e+01 -1.73506e+01 -2.35316e-02
       C  1.22327e+01 -1.86016e+01 -1.74774e-01
       C  1.50787e+01 -1.86179e+01 -1.33747e-02
       C  1.29993e+01 -1.48881e+01 -1.59821e-01
       C  1.44354e+01 -1.48342e+01 -1.13725e-01
       C  1.22489e+01 -1.61794e+01 -1.64414e-01
       C  1.51056e+01 -1.61741e+01 -1.85545e-01
       C  1.29405e+01 -1.24363e+01  1.61499e-02
       C  1.44585e+01 -1.23079e+01 -1.20009e-01
       C  1.23245e+01 -1.36684e+01 -8.33968e-02
       C  1.50632e+01 -1.36080e+01 -1.74492e-01
       C  1.33716e-01 -5.39003e-02  1.47882e-02
       C  1.55664e+00 -1.00684e-01 -2.49292e-02
       C -6.03008e-01 -1.25518e+00 -1.50339e-02
       C  2.28058e+00 -1.31983e+00 -5.44380e-02
       C  1.73191e-01 -1.73632e+01 -2.11803e-01
       C  1.52104e+00 -1.73534e+01 -1.41173e-01
       C -5.68589e-01 -1.85901e+01 -3.84455e-02
       C  2.25807e+00 -1.86176e+01 -2.14336e-01
       C  1.34496e-01 -1.48887e+01 -1.50302e-01
       C  1.54661e+00 -1.48457e+01 -1.99406e-01
       C -5.70349e-01 -1.61499e+01 -1.83580e-01
       C  2.25582e+00 -1.60550e+01 -2.48671e-01
       C  1.12628e-01 -1.24814e+01 -5.84007e-02
       C  1.59665e+00 -1.24599e+01  7.58600e-02
       C -6.17953e-01 -1.36289e+01 -6.86148e-02
       C  2.23382e+00 -1.36797e+01  7.32507e-02
       H  5.79406e+00 -1.02407e+01  5.66947e+00
       C  5.48008e+00 -9.44079e+00  4.98516e+00
       C  5.84850e+00 -8.13481e+00  5.18964e+00
       H  6.83740e+00 -7.74209e+00  5.74332e+00
       C  5.11422e+00 -7.16837e+00  4.60157e+00
       H  5.31936e+00 -6.15638e+00  4.99909e+00
       C  3.99447e+00 -7.43032e+00  3.88398e+00
       H  3.31645e+00 -6.67391e+00  3.50483e+00
       C  3.74151e+00 -8.74208e+00  3.53239e+00
       H  2.93305e+00 -8.90295e+00  2.77244e+00
       C  4.50447e+00 -9.82428e+00  3.99782e+00
       H  4.09517e+00 -1.07267e+01  3.76901e+00
140
# CELL(abcABC):   17.14040    19.79200    30.00000    90.00000    90.00000    90.00000  Step:         100  Bead:      22 positions{angstrom}  cell{angstrom}
       C  4.43505e+00 -9.97803e+00 -1.05345e-01
       C  5.79431e+00 -9.91181e+00  1.44339e-02
       C  3.72662e+00 -1.12516e+01 -9.11687e-02
       C  6.49130e+00 -1.12015e+01 -4.49056e-02
       C  4.35477e+00 -7.47644e+00  6.38143e-02
       C  5.81939e+00 -7.52217e+00 -1.30151e-01
       C  3.61432e+00 -8.77684e+00 -9.75264e-02
       C  6.53360e+00 -8.68547e+00 -8.14060e-02
       C  4.45179e+00 -5.07796e+00 -1.36397e-02
       C  5.77810e+00 -5.04949e+00 -1.89728e-01
       C  3.68576e+00 -6.19987e+00 -5.48436e-02
       C  6.62030e+00 -6.23473e+00 -1.61850e-01
       C  4.51277e+00 -2.52704e+00 -8.53423e-02
       C  5.85392e+00 -2.56596e+00 -2.56130e-02
       C  3.73049e+00 -3.83919e+00 -3.57859e-02
       C  6.57180e+00 -3.79845e+00 -8.29965e-02
       C  8.67444e+00 -9.85273e+00 -9.68869e-02
       C  1.01015e+01 -9.92996e+00 -3.44171e-02
       C  8.00698e+00 -1.11642e+01 -7.46705e-02
       C  1.08300e+01 -1.11056e+01  7.74817e-02
       C  8.68655e+00 -7.46856e+00 -2.74128e-01
       C  1.00937e+01 -7.51424e+00 -1.28959e-01
       C  7.95218e+00 -8.74880e+00 -1.63118e-01
       C  1.08131e+01 -8.64503e+00 -1.18439e-01
       C  8.61092e+00 -4.91553e+00 -1.65557e-01
       C  1.01318e+01 -4.92261e+00 -7.78068e-02
       C  8.02818e+00 -6.17483e+00 -2.59864e-01
       C  1.08617e+01 -6.23984e+00 -1.24015e-01
       C  8.73089e+00 -2.51265e+00 -8.54308e-02
       C  1.01118e+01 -2.42669e+00 -7.93621e-02
       C  8.04498e+00 -3.70832e+00 -1.37017e-01
       C  1.08427e+01 -3.76044e+00 -1.18235e-01
       C  1.29338e+01 -9.90759e+00 -1.08414e-01
       C  1.44210e+01 -9.99393e+00 -1.98578e-01
       C  1.23020e+01 -1.12086e+01 -1.54695e-01
       C  1.51061e+01 -1.12188e+01 -1.08531e-01
       C  1.30059e+01 -7.54911e+00 -3.15103e-01
       C  1.44475e+01 -7.51415e+00 -4.00330e-01
       C  1.22364e+01 -8.73637e+00 -2.37083e-01
       C  1.51277e+01 -8.64109e+00 -1.60431e-01
       C  1.29535e+01 -4.98304e+00 -6.47000e-02
       C  1.44738e+01 -5.04535e+00 -4.34713e-02
       C  1.22715e+01 -6.20098e+00 -1.98417e-01
       C  1.51416e+01 -6.29684e+00 -2.34259e-01
       C  1.31015e+01 -2.45120e+00 -8.56541e-02
       C  1.44511e+01 -2.49929e+00  1.13742e-03
       C  1.23657e+01 -3.73307e+00 -1.28112e-01
       C  1.51288e+01 -3.81739e+00 -1.55472e-02
       C  5.85450e-02 -1.00051e+01 -4.50224e-02
       C  1.56976e+00 -1.00000e+01 -1.55045e-01
       C -6.16485e-01 -1.12579e+01 -3.39270e-02
       C  2.32705e+00 -1.11919e+01 -2.63536e-01
       C  1.08523e-01 -7.51436e+00 -2.70086e-01
       C  1.56112e+00 -7.47943e+00 -2.58082e-01
       C -5.39682e-01 -8.76430e+00 -1.12613e-01
       C  2.25783e+00 -8.80402e+00 -7.97207e-02
       C  1.86035e-01 -4.98733e+00 -2.23392e-01
       C  1.58177e+00 -5.06267e+00 -1.56228e-01
       C -6.65640e-01 -6.23375e+00 -3.45264e-01
       C  2.31158e+00 -6.23590e+00 -1.20585e-01
       C  1.48856e-01 -2.45667e+00 -1.35343e-01
       C  1.50991e+00 -2.54100e+00 -9.10675e-02
       C -5.34910e-01 -3.74652e+00 -1.69459e-01
       C  2.26151e+00 -3.73595e+00 -3.10341e-02
       C  4.37463e+00 -1.00072e-01 -7.56062e-02
       C  5.84522e+00 -2.10131e-02 -1.69728e-01
       C  3.75310e+00 -1.29427e+00 -5.08184e-02
       C  6.57625e+00 -1.27441e+00 -1.33113e-01
       C  4.45490e+00 -1.74123e+01 -1.17880e-01
       C  5.93773e+00 -1.74491e+01 -3.12314e-02
       C  3.71990e+00 -1.86668e+01  4.94267e-02
       C  6.56802e+00 -1.85919e+01 -9.30178e-03
       C  4.44453e+00 -1.49555e+01 -6.73432e-02
       C  5.87183e+00 -1.49215e+01  8.50310e-02
       C  3.76257e+00 -1.61532e+01 -1.55256e-01
       C  6.57260e+00 -1.62222e+01  9.45510e-02
       C  4.34506e+00 -1.24490e+01 -1.83830e-02
       C  5.90785e+00 -1.23992e+01  7.57585e-02
       C  3.71551e+00 -1.37345e+01 -1.99842e-01
       C  6.49350e+00 -1.36786e+01  8.43610e-02
       C  8.74159e+00 -2.28426e-02  3.80222e-02
       C  1.02274e+01 -6.04126e-02  2.87925e-02
       C  8.03667e+00 -1.26833e+00 -1.88184e-01
       C  1.09088e+01 -1.31567e+00 -8.80561e-03
       C  8.67897e+00 -1.73366e+01 -1.10219e-01
       C  1.02222e+01 -1.73864e+01 -1.18317e-01
       C  8.07078e+00 -1.86002e+01  7.33300e-02
       C  1.09128e+01 -1.86225e+01  1.12166e-02
       C  8.70347e+00 -1.48745e+01  1.62810e-01
       C  1.01795e+01 -1.48884e+01  6.16626e-02
       C  8.05677e+00 -1.61489e+01 -9.31333e-03
       C  1.08533e+01 -1.61637e+01 -5.32121e-02
       C  8.63013e+00 -1.23806e+01 -6.67354e-02
       C  1.02020e+01 -1.24385e+01  5.18182e-02
       C  7.95229e+00 -1.36241e+01  9.14922e-02
       C  1.09485e+01 -1.36752e+01  3.43661e-02
       C  1.30535e+01  7.74624e-03 -1.20306e-01
       C  1.43895e+01 -6.88389e-02 -2.99023e-02
       C  1.23064e+01 -1.28219e+00 -1.40896e-01
       C  1.51853e+01 -1.22716e+00 -2.18290e-03
       C  1.30884e+01 -1.73846e+01 -3.49977e-03
       C  1.44652e+01 -1.72904e+01 -2.15342e-01
       C  1.23536e+01 -1.86175e+01  3.80901e-02
       C  1.51715e+01 -1.86528e+01 -1.32176e-01
       C  1.29754e+01 -1.49530e+01 -2.71080e-02
       C  1.44099e+01 -1.49425e+01 -7.36202e-02
       C  1.23420e+01 -1.62139e+01  4.63559e-02
       C  1.51201e+01 -1.61500e+01 -1.21273e-01
       C  1.29842e+01 -1.24854e+01 -1.14807e-01
       C  1.44238e+01 -1.24576e+01 -1.12119e-01
       C  1.23425e+01 -1.36916e+01 -1.27927e-01
       C  1.51766e+01 -1.36487e+01 -1.13844e-01
       C  1.57024e-01 -3.42195e-02 -6.36784e-02
       C  1.57116e+00 -1.54809e-01  2.31532e-02
       C -5.62887e-01 -1.27385e+00 -1.21503e-01
       C  2.30032e+00 -1.25189e+00 -5.86930e-02
       C  1.65870e-01 -1.73471e+01 -1.63371e-01
       C  1.59528e+00 -1.73662e+01  1.14254e-01
       C -5.66076e-01 -1.85731e+01 -4.94660e-02
       C  2.33957e+00 -1.85859e+01 -1.36365e-03
       C  2.11793e-01 -1.48864e+01 -3.02750e-01
       C  1.57661e+00 -1.49448e+01 -2.30866e-01
       C -5.26886e-01 -1.61269e+01 -1.04887e-01
       C  2.30334e+00 -1.62239e+01 -1.61301e-01
       C  2.08677e-01 -1.24589e+01 -1.24777e-01
       C  1.63022e+00 -1.24346e+01 -2.15278e-01
       C -5.42767e-01 -1.36881e+01 -2.41993e-01
       C  2.32924e+00 -1.37708e+01 -9.03682e-02
       H  5.73652e+00 -1.01788e+01  5.61836e+00
       C  5.32587e+00 -9.45960e+00  4.96721e+00
       C  5.81031e+00 -8.17278e+00  5.03092e+00
       H  6.88881e+00 -7.97515e+00  5.26299e+00
       C  5.16300e+00 -7.14416e+00  4.49761e+00
       H  5.58183e+00 -6.07024e+00  4.54789e+00
       C  3.86892e+00 -7.31710e+00  3.96545e+00
       H  3.06478e+00 -6.42527e+00  3.89952e+00
       C  3.49951e+00 -8.65092e+00  3.77631e+00
       H  2.53377e+00 -8.76879e+00  3.34081e+00
       C  4.18698e+00 -9.76725e+00  4.23149e+00
       H  3.92193e+00 -1.08833e+01  4.25171e+00
