140
# CELL(abcABC):   17.14040    19.79200    30.00000    90.00000    90.00000    90.00000  Step:           0  Bead:       5 positions{angstrom}  cell{angstrom}
       C  4.40587e+00 -9.95292e+00 -9.07017e-02
       C  5.79909e+00 -9.90603e+00 -9.86039e-02
       C  3.72992e+00 -1.11918e+01 -9.19462e-02
       C  6.59793e+00 -1.11522e+01 -2.36527e-01
       C  4.44598e+00 -7.52354e+00 -9.04772e-02
       C  5.86557e+00 -7.48387e+00 -1.55887e-01
       C  3.69634e+00 -8.80818e+00 -1.88373e-01
       C  6.57364e+00 -8.69874e+00 -2.17847e-01
       C  4.39952e+00 -5.07249e+00 -2.35100e-01
       C  5.84394e+00 -4.99218e+00 -2.36667e-01
       C  3.66691e+00 -6.24550e+00 -1.27456e-01
       C  6.52153e+00 -6.25266e+00 -1.46754e-01
       C  4.42566e+00 -2.52662e+00 -1.24507e-01
       C  5.89958e+00 -2.53969e+00 -2.68448e-01
       C  3.73966e+00 -3.86425e+00 -2.95823e-01
       C  6.58011e+00 -3.84916e+00 -2.06740e-01
       C  8.72921e+00 -9.93921e+00 -1.17653e-01
       C  1.01323e+01 -9.92480e+00 -8.21338e-02
       C  7.90864e+00 -1.11906e+01  9.05099e-02
       C  1.09001e+01 -1.11869e+01 -1.38676e-01
       C  8.75682e+00 -7.53425e+00 -1.80706e-01
       C  1.02598e+01 -7.42634e+00 -1.57634e-01
       C  7.97592e+00 -8.74068e+00 -1.79460e-01
       C  1.08523e+01 -8.72776e+00 -2.33767e-01
       C  8.63023e+00 -5.04194e+00 -4.10982e-02
       C  1.01624e+01 -4.96463e+00 -1.95808e-01
       C  8.07717e+00 -6.25974e+00 -1.62332e-01
       C  1.08541e+01 -6.20285e+00 -1.67355e-01
       C  8.65650e+00 -2.47570e+00 -1.54067e-01
       C  1.01093e+01 -2.59634e+00 -1.79420e-01
       C  7.91154e+00 -3.86089e+00 -2.95747e-01
       C  1.09331e+01 -3.67769e+00  5.68020e-03
       C  1.29583e+01 -9.88658e+00 -1.42177e-01
       C  1.44257e+01 -9.87824e+00 -1.42545e-01
       C  1.23467e+01 -1.11463e+01  2.47947e-02
       C  1.51031e+01 -1.11593e+01 -1.61590e-01
       C  1.30176e+01 -7.52607e+00  7.14886e-02
       C  1.44169e+01 -7.45517e+00 -5.96830e-02
       C  1.23191e+01 -8.62548e+00 -2.43230e-01
       C  1.51555e+01 -8.65359e+00 -1.81544e-01
       C  1.29787e+01 -5.01182e+00 -1.52483e-01
       C  1.44914e+01 -5.01792e+00 -1.38674e-01
       C  1.22812e+01 -6.18057e+00 -1.48995e-01
       C  1.51840e+01 -6.26197e+00 -1.66931e-01
       C  1.30331e+01 -2.51260e+00 -1.07359e-01
       C  1.44527e+01 -2.45760e+00 -1.16166e-01
       C  1.23358e+01 -3.73866e+00 -1.37411e-01
       C  1.51245e+01 -3.70020e+00 -1.06832e-01
       C  3.35457e-03 -9.94595e+00 -2.48159e-01
       C  1.47089e+00 -9.96859e+00 -6.57166e-02
       C -6.59927e-01 -1.11864e+01 -2.08548e-01
       C  2.30388e+00 -1.12598e+01  3.44984e-02
       C  1.37831e-01 -7.44668e+00 -7.64361e-02
       C  1.53868e+00 -7.48519e+00 -6.73490e-02
       C -5.28289e-01 -8.70941e+00 -2.27336e-01
       C  2.32756e+00 -8.82041e+00  2.20643e-03
       C  1.98037e-01 -5.02309e+00 -4.71140e-03
       C  1.57361e+00 -4.90358e+00 -8.04758e-02
       C -4.90628e-01 -6.28310e+00 -1.04794e-01
       C  2.37708e+00 -6.25174e+00  1.39057e-02
       C  1.13240e-01 -2.48095e+00 -9.73236e-04
       C  1.56106e+00 -2.53504e+00  1.85639e-02
       C -6.27849e-01 -3.72714e+00 -1.20722e-01
       C  2.26541e+00 -3.78737e+00 -1.64840e-01
       C  4.43783e+00 -2.18079e-02 -4.22593e-02
       C  5.80839e+00 -1.28524e-01 -3.29836e-02
       C  3.80038e+00 -1.27286e+00 -9.34868e-02
       C  6.59338e+00 -1.34855e+00 -3.30197e-02
       C  4.48515e+00 -1.73308e+01 -2.42885e-02
       C  5.85806e+00 -1.73725e+01 -5.04530e-02
       C  3.73935e+00 -1.85408e+01 -1.72357e-01
       C  6.52924e+00 -1.85728e+01  1.36149e-01
       C  4.44339e+00 -1.49055e+01  6.36545e-03
       C  5.84157e+00 -1.49540e+01 -6.04945e-02
       C  3.63278e+00 -1.59704e+01 -6.76358e-02
       C  6.60196e+00 -1.60825e+01  1.10178e-01
       C  4.43231e+00 -1.24138e+01 -5.21835e-02
       C  5.84921e+00 -1.24359e+01 -1.84369e-01
       C  3.65072e+00 -1.37243e+01 -1.31276e-01
       C  6.58272e+00 -1.36525e+01 -1.01782e-01
       C  8.72148e+00 -7.83190e-02 -6.91227e-02
       C  1.01413e+01  3.12738e-03 -1.65833e-02
       C  7.95476e+00 -1.33228e+00  2.93976e-02
       C  1.07828e+01 -1.33959e+00 -1.68941e-01
       C  8.67369e+00 -1.73425e+01  2.42120e-01
       C  1.01706e+01 -1.73588e+01  1.65410e-01
       C  7.92372e+00 -1.86441e+01  5.40611e-02
       C  1.07706e+01 -1.85746e+01 -7.88321e-02
       C  8.69208e+00 -1.48478e+01  3.89630e-02
       C  1.01992e+01 -1.48804e+01 -1.87814e-02
       C  8.01452e+00 -1.61300e+01  3.21710e-02
       C  1.08074e+01 -1.61965e+01 -2.55376e-02
       C  8.77278e+00 -1.24015e+01  7.90056e-02
       C  1.01870e+01 -1.24444e+01 -7.61016e-03
       C  8.03637e+00 -1.36969e+01 -3.43428e-02
       C  1.08990e+01 -1.36374e+01 -3.47591e-02
       C  1.29128e+01 -1.63382e-02 -1.50032e-01
       C  1.43027e+01 -2.62724e-02 -3.59592e-03
       C  1.23048e+01 -1.26149e+00 -1.25579e-03
       C  1.50555e+01 -1.22287e+00 -5.48902e-02
       C  1.29846e+01 -1.74053e+01 -1.44024e-01
       C  1.44722e+01 -1.73844e+01 -3.73288e-02
       C  1.22104e+01 -1.85144e+01 -1.55594e-01
       C  1.51231e+01 -1.85475e+01  4.55235e-02
       C  1.29928e+01 -1.49769e+01 -2.08795e-01
       C  1.44331e+01 -1.49118e+01 -1.74624e-01
       C  1.23279e+01 -1.61357e+01 -1.04976e-01
       C  1.51507e+01 -1.61733e+01 -2.22009e-01
       C  1.29907e+01 -1.23685e+01  6.50151e-02
       C  1.43529e+01 -1.23988e+01 -1.67629e-01
       C  1.23143e+01 -1.36638e+01 -5.41649e-02
       C  1.50864e+01 -1.36868e+01 -7.90100e-02
       C  7.27134e-02 -3.80790e-02  8.37159e-02
       C  1.54408e+00 -4.50851e-02 -4.91641e-02
       C -6.19391e-01 -1.28300e+00 -1.56287e-03
       C  2.31525e+00 -1.31713e+00 -3.80663e-02
       C  1.09345e-01 -1.73116e+01 -2.35733e-01
       C  1.54391e+00 -1.73202e+01 -1.40794e-01
       C -5.90689e-01 -1.85397e+01 -8.95099e-02
       C  2.28221e+00 -1.86240e+01 -1.84783e-01
       C  6.41119e-02 -1.49361e+01 -1.43438e-01
       C  1.51080e+00 -1.49472e+01 -9.08901e-02
       C -5.70336e-01 -1.61776e+01 -1.18548e-01
       C  2.25660e+00 -1.60782e+01 -1.61493e-01
       C  1.75312e-01 -1.24399e+01 -1.09562e-01
       C  1.48859e+00 -1.24311e+01  7.04589e-02
       C -6.69534e-01 -1.37163e+01 -1.38973e-01
       C  2.31935e+00 -1.37166e+01  3.02385e-02
       H  5.94026e+00 -1.01965e+01  5.72671e+00
       C  5.51059e+00 -9.50835e+00  5.02033e+00
       C  5.85568e+00 -8.09075e+00  5.13132e+00
       H  6.99214e+00 -7.75648e+00  5.45654e+00
       C  5.03548e+00 -7.13535e+00  4.62797e+00
       H  5.36908e+00 -6.19026e+00  5.18936e+00
       C  4.05869e+00 -7.45247e+00  3.88032e+00
       H  3.30906e+00 -6.67346e+00  3.59776e+00
       C  3.70531e+00 -8.73676e+00  3.54618e+00
       H  2.69372e+00 -9.19876e+00  2.81555e+00
       C  4.49236e+00 -9.78693e+00  4.09814e+00
       H  3.99987e+00 -1.08424e+01  3.59503e+00
140
# CELL(abcABC):   17.14040    19.79200    30.00000    90.00000    90.00000    90.00000  Step:         100  Bead:       5 positions{angstrom}  cell{angstrom}
       C  4.36956e+00 -9.92242e+00 -9.30599e-02
       C  5.85571e+00 -9.89444e+00  2.98365e-02
       C  3.72387e+00 -1.12336e+01 -1.01570e-01
       C  6.59070e+00 -1.12182e+01 -1.19671e-01
       C  4.39155e+00 -7.43894e+00 -7.25484e-02
       C  5.85984e+00 -7.44449e+00 -2.31348e-01
       C  3.67590e+00 -8.67491e+00 -4.54655e-02
       C  6.50229e+00 -8.68647e+00 -1.62598e-01
       C  4.37254e+00 -4.97136e+00  4.25584e-02
       C  5.84355e+00 -4.94336e+00 -1.44455e-01
       C  3.73329e+00 -6.23785e+00 -1.90835e-02
       C  6.59263e+00 -6.27509e+00 -1.70283e-01
       C  4.41530e+00 -2.49739e+00 -6.53861e-02
       C  5.88082e+00 -2.49463e+00 -1.14595e-01
       C  3.72335e+00 -3.75482e+00  2.84330e-02
       C  6.58188e+00 -3.80416e+00 -1.92966e-01
       C  8.74196e+00 -9.93062e+00 -8.92210e-02
       C  1.02465e+01 -9.87465e+00  1.90517e-02
       C  7.99011e+00 -1.11767e+01 -6.82213e-02
       C  1.08502e+01 -1.11142e+01  1.25900e-03
       C  8.63905e+00 -7.46500e+00 -2.46512e-01
       C  1.01505e+01 -7.38960e+00 -1.13846e-01
       C  7.92934e+00 -8.72156e+00 -6.40579e-02
       C  1.09314e+01 -8.65851e+00 -8.91723e-02
       C  8.69179e+00 -5.04278e+00 -1.18114e-01
       C  1.01138e+01 -4.89785e+00 -9.55791e-02
       C  8.01250e+00 -6.16551e+00 -2.57103e-01
       C  1.07814e+01 -6.19172e+00 -1.83757e-02
       C  8.75324e+00 -2.52761e+00 -7.06984e-02
       C  1.01172e+01 -2.54180e+00 -3.20599e-02
       C  7.89497e+00 -3.73701e+00 -1.92169e-01
       C  1.09164e+01 -3.68762e+00 -7.66343e-02
       C  1.29721e+01 -9.92844e+00 -1.68308e-01
       C  1.43586e+01 -9.93988e+00 -1.89276e-01
       C  1.22450e+01 -1.11827e+01 -3.05197e-01
       C  1.51045e+01 -1.11653e+01 -1.27684e-01
       C  1.29385e+01 -7.53001e+00 -3.19255e-01
       C  1.44277e+01 -7.47388e+00 -4.04412e-01
       C  1.22128e+01 -8.70035e+00 -2.52216e-01
       C  1.51455e+01 -8.72889e+00 -2.19269e-01
       C  1.29954e+01 -4.99244e+00 -9.42708e-02
       C  1.44575e+01 -5.03062e+00 -4.88500e-02
       C  1.22133e+01 -6.25364e+00 -1.59113e-01
       C  1.51381e+01 -6.27855e+00 -1.48752e-01
       C  1.30728e+01 -2.47495e+00 -5.60158e-02
       C  1.44913e+01 -2.49067e+00 -6.02958e-02
       C  1.23435e+01 -3.76995e+00 -1.82158e-01
       C  1.52088e+01 -3.77977e+00 -2.75274e-02
       C  1.49236e-01 -1.00668e+01 -1.02385e-01
       C  1.46164e+00 -9.95862e+00 -2.75619e-02
       C -5.76348e-01 -1.11708e+01 -5.36494e-02
       C  2.28319e+00 -1.11759e+01 -1.38881e-01
       C  1.14387e-01 -7.40654e+00 -2.37135e-01
       C  1.62785e+00 -7.50421e+00 -2.70887e-01
       C -6.26673e-01 -8.82481e+00 -2.22609e-01
       C  2.28153e+00 -8.78403e+00 -1.20287e-01
       C  9.68808e-02 -5.04427e+00 -2.14469e-01
       C  1.58962e+00 -4.99205e+00 -2.34526e-01
       C -5.79833e-01 -6.24718e+00 -3.53872e-01
       C  2.30552e+00 -6.20091e+00 -1.13223e-01
       C  1.50782e-01 -2.52457e+00 -2.00329e-01
       C  1.61392e+00 -2.55302e+00 -1.27812e-01
       C -5.92472e-01 -3.84979e+00 -2.22814e-01
       C  2.22810e+00 -3.77429e+00 -5.91862e-02
       C  4.35822e+00 -1.21787e-01 -2.17427e-02
       C  5.79503e+00 -5.41830e-02 -8.23535e-02
       C  3.66741e+00 -1.33116e+00 -4.71982e-02
       C  6.56128e+00 -1.29616e+00 -1.92484e-01
       C  4.41220e+00 -1.74554e+01 -1.51051e-01
       C  5.87574e+00 -1.74202e+01  4.27878e-02
       C  3.66247e+00 -1.86612e+01  4.03469e-02
       C  6.57263e+00 -1.86656e+01 -4.89417e-02
       C  4.42384e+00 -1.49380e+01 -2.63353e-02
       C  5.85401e+00 -1.49967e+01  5.27924e-02
       C  3.75581e+00 -1.61660e+01 -9.72587e-02
       C  6.60157e+00 -1.62029e+01  8.13416e-02
       C  4.38495e+00 -1.24677e+01 -2.36171e-02
       C  5.75583e+00 -1.25038e+01  3.58957e-02
       C  3.76638e+00 -1.37164e+01 -1.17772e-01
       C  6.46999e+00 -1.36646e+01  1.10006e-01
       C  8.73657e+00 -1.48622e-02  7.16005e-03
       C  1.02119e+01 -2.25793e-02  2.85097e-02
       C  8.03103e+00 -1.22717e+00 -6.17890e-02
       C  1.09314e+01 -1.30094e+00  2.09582e-02
       C  8.74265e+00 -1.74054e+01 -9.59927e-02
       C  1.01805e+01 -1.73192e+01 -3.66467e-02
       C  7.99758e+00 -1.85861e+01  6.03135e-02
       C  1.08807e+01 -1.84681e+01  5.13635e-03
       C  8.69835e+00 -1.49808e+01  1.35406e-01
       C  1.01847e+01 -1.49107e+01  8.76530e-02
       C  7.99324e+00 -1.61702e+01  3.02706e-02
       C  1.09171e+01 -1.60529e+01 -1.15149e-01
       C  8.61721e+00 -1.24189e+01 -4.75647e-02
       C  1.00572e+01 -1.23797e+01  3.70764e-02
       C  7.99084e+00 -1.36249e+01  1.00434e-01
       C  1.08595e+01 -1.36687e+01  6.53506e-02
       C  1.29880e+01 -1.07263e-01 -1.33450e-01
       C  1.44697e+01 -6.24688e-02  7.29118e-02
       C  1.22956e+01 -1.29645e+00 -1.57434e-01
       C  1.51450e+01 -1.29731e+00  1.07550e-01
       C  1.30248e+01 -1.74012e+01  5.29230e-02
       C  1.45061e+01 -1.73830e+01 -1.42252e-01
       C  1.23267e+01 -1.86204e+01 -8.99701e-03
       C  1.50841e+01 -1.85144e+01 -8.21740e-02
       C  1.30377e+01 -1.48962e+01 -1.29859e-02
       C  1.44885e+01 -1.48998e+01 -1.05103e-01
       C  1.22660e+01 -1.61595e+01  8.05645e-02
       C  1.51377e+01 -1.61592e+01 -1.07581e-01
       C  1.29713e+01 -1.23812e+01 -2.23900e-01
       C  1.43648e+01 -1.23777e+01 -2.04991e-02
       C  1.22940e+01 -1.36662e+01 -5.96231e-02
       C  1.51188e+01 -1.36352e+01 -7.66461e-02
       C  1.59801e-01  7.31486e-03 -2.37393e-02
       C  1.62014e+00  5.54235e-03 -9.31188e-03
       C -5.07207e-01 -1.31000e+00 -1.00198e-01
       C  2.23282e+00 -1.29611e+00 -7.06247e-02
       C  2.24408e-01 -1.73401e+01 -9.88605e-02
       C  1.56342e+00 -1.74022e+01  6.49091e-02
       C -5.95586e-01 -1.85910e+01 -9.13328e-02
       C  2.27122e+00 -1.86780e+01 -2.49459e-02
       C  2.43138e-01 -1.48731e+01 -1.69660e-01
       C  1.60620e+00 -1.49851e+01 -1.42999e-01
       C -6.04020e-01 -1.61375e+01 -6.97326e-02
       C  2.32171e+00 -1.61921e+01 -3.46668e-02
       C  1.32875e-01 -1.24556e+01 -7.10706e-02
       C  1.62369e+00 -1.24839e+01 -1.32660e-01
       C -6.30182e-01 -1.36604e+01 -1.64849e-01
       C  2.25611e+00 -1.36623e+01 -1.65666e-01
       H  5.91029e+00 -1.04074e+01  5.38928e+00
       C  5.37071e+00 -9.51227e+00  4.96616e+00
       C  5.88736e+00 -8.26101e+00  5.09484e+00
       H  6.80801e+00 -7.94121e+00  5.44445e+00
       C  5.14503e+00 -7.12258e+00  4.60207e+00
       H  5.75078e+00 -6.19053e+00  4.69661e+00
       C  3.96929e+00 -7.38500e+00  3.89001e+00
       H  3.23729e+00 -6.44740e+00  3.81328e+00
       C  3.49533e+00 -8.66965e+00  3.75194e+00
       H  2.56524e+00 -8.60200e+00  3.19342e+00
       C  4.15788e+00 -9.66419e+00  4.24059e+00
       H  3.90452e+00 -1.07091e+01  4.18218e+00
