140
# CELL(abcABC):   17.14040    19.79200    30.00000    90.00000    90.00000    90.00000  Step:           0  Bead:      23 positions{angstrom}  cell{angstrom}
       C  4.45025e+00 -9.97399e+00 -1.17042e-01
       C  5.88496e+00 -9.98877e+00 -1.13423e-01
       C  3.68750e+00 -1.12059e+01 -4.93434e-02
       C  6.58858e+00 -1.12021e+01 -2.29575e-01
       C  4.40775e+00 -7.47459e+00 -5.53485e-02
       C  5.90035e+00 -7.54963e+00 -2.32716e-01
       C  3.65571e+00 -8.68932e+00  3.39767e-02
       C  6.55178e+00 -8.80255e+00 -1.99421e-01
       C  4.44155e+00 -5.01308e+00 -1.39024e-01
       C  5.82114e+00 -5.03228e+00 -1.13284e-01
       C  3.73721e+00 -6.25637e+00 -1.36436e-01
       C  6.65972e+00 -6.29615e+00 -1.01952e-01
       C  4.40252e+00 -2.53936e+00 -1.47409e-01
       C  5.87748e+00 -2.53945e+00 -2.12054e-01
       C  3.71266e+00 -3.77184e+00 -2.78911e-01
       C  6.63442e+00 -3.69975e+00 -2.39004e-01
       C  8.73020e+00 -1.00099e+01 -1.59519e-01
       C  1.01985e+01 -9.94614e+00 -1.37239e-01
       C  8.09049e+00 -1.11999e+01  6.39240e-02
       C  1.09117e+01 -1.10940e+01 -7.64781e-02
       C  8.74042e+00 -7.55756e+00 -9.58410e-02
       C  1.01889e+01 -7.47183e+00 -1.31021e-01
       C  8.01577e+00 -8.75790e+00 -1.32425e-01
       C  1.08788e+01 -8.71093e+00 -2.78592e-01
       C  8.75725e+00 -4.95937e+00 -6.14321e-02
       C  1.01432e+01 -5.00994e+00 -1.62838e-01
       C  8.01954e+00 -6.21755e+00 -1.36695e-01
       C  1.08295e+01 -6.20024e+00 -2.23393e-01
       C  8.74956e+00 -2.54724e+00 -1.80867e-01
       C  1.01747e+01 -2.49162e+00 -3.16529e-01
       C  7.95332e+00 -3.78050e+00 -2.95581e-01
       C  1.08768e+01 -3.81809e+00 -6.94017e-02
       C  1.29365e+01 -9.90929e+00 -1.01557e-01
       C  1.43592e+01 -9.88077e+00 -2.05920e-01
       C  1.22538e+01 -1.11610e+01  3.24465e-02
       C  1.51262e+01 -1.11580e+01 -1.95092e-01
       C  1.30706e+01 -7.46770e+00 -5.85038e-02
       C  1.43839e+01 -7.37807e+00 -9.04832e-02
       C  1.23342e+01 -8.70869e+00 -1.58893e-01
       C  1.50880e+01 -8.63440e+00 -1.50523e-01
       C  1.30199e+01 -4.89301e+00 -5.69185e-02
       C  1.44203e+01 -5.05440e+00 -1.76191e-01
       C  1.22911e+01 -6.23501e+00 -1.52443e-01
       C  1.51998e+01 -6.23860e+00 -1.81695e-01
       C  1.30104e+01 -2.59633e+00  3.15305e-02
       C  1.44579e+01 -2.44895e+00 -1.52946e-01
       C  1.23389e+01 -3.76554e+00 -1.85760e-01
       C  1.51000e+01 -3.79974e+00 -7.41402e-02
       C  1.21508e-01 -9.96837e+00 -2.04169e-01
       C  1.50618e+00 -1.00351e+01 -5.56250e-03
       C -5.59328e-01 -1.12687e+01 -2.21043e-01
       C  2.26795e+00 -1.12877e+01 -5.65783e-02
       C  1.96087e-01 -7.49247e+00 -1.32745e-01
       C  1.62294e+00 -7.54510e+00 -1.13850e-01
       C -5.96646e-01 -8.75138e+00 -1.51399e-01
       C  2.17748e+00 -8.78698e+00 -4.55964e-02
       C  1.22838e-01 -4.93192e+00 -4.88115e-02
       C  1.65711e+00 -5.06752e+00 -4.41575e-02
       C -5.92925e-01 -6.29712e+00 -1.04431e-01
       C  2.27332e+00 -6.30524e+00 -9.46974e-03
       C  1.38885e-01 -2.52765e+00  5.78453e-02
       C  1.58973e+00 -2.48700e+00  7.76862e-02
       C -5.76442e-01 -3.77743e+00 -1.09948e-01
       C  2.25401e+00 -3.78017e+00 -1.36990e-01
       C  4.39641e+00 -1.30057e-01 -8.17186e-02
       C  5.89098e+00 -3.09533e-02  4.73859e-02
       C  3.73133e+00 -1.31194e+00 -8.66814e-02
       C  6.54294e+00 -1.25627e+00 -6.58522e-02
       C  4.35912e+00 -1.73165e+01 -5.41838e-02
       C  5.83935e+00 -1.74030e+01  6.25463e-03
       C  3.68222e+00 -1.85375e+01 -2.02913e-01
       C  6.53455e+00 -1.86622e+01  1.42348e-01
       C  4.46485e+00 -1.48288e+01  7.87551e-03
       C  5.81462e+00 -1.48720e+01  3.52713e-03
       C  3.77659e+00 -1.61836e+01 -1.36957e-02
       C  6.63020e+00 -1.61682e+01  5.24273e-02
       C  4.44954e+00 -1.24526e+01 -8.29161e-02
       C  5.86314e+00 -1.23540e+01 -1.68729e-01
       C  3.70763e+00 -1.36715e+01 -6.45441e-02
       C  6.56085e+00 -1.36643e+01 -1.64207e-01
       C  8.73632e+00 -4.40847e-02 -2.93938e-02
       C  1.01708e+01 -9.30980e-02 -8.30457e-02
       C  8.07980e+00 -1.25816e+00 -4.19757e-02
       C  1.08114e+01 -1.24810e+00 -1.15539e-01
       C  8.70080e+00 -1.74462e+01  2.55168e-01
       C  1.00971e+01 -1.73791e+01  2.33445e-01
       C  7.95037e+00 -1.86537e+01  1.24652e-02
       C  1.07660e+01 -1.86408e+01 -6.46595e-02
       C  8.72551e+00 -1.48499e+01  4.65660e-03
       C  1.00920e+01 -1.48284e+01 -1.23088e-02
       C  8.01811e+00 -1.61252e+01  1.38871e-01
       C  1.08503e+01 -1.60785e+01 -3.03501e-02
       C  8.79731e+00 -1.24357e+01  5.05114e-02
       C  1.01483e+01 -1.23439e+01 -5.92001e-02
       C  8.05306e+00 -1.36535e+01  5.99318e-02
       C  1.09567e+01 -1.36216e+01 -1.75731e-02
       C  1.29989e+01 -3.30232e-02 -2.12904e-01
       C  1.42957e+01 -3.87483e-02  4.39784e-02
       C  1.22701e+01 -1.31211e+00  2.91907e-02
       C  1.51640e+01 -1.21046e+00 -9.51590e-02
       C  1.29940e+01 -1.74059e+01 -1.70853e-01
       C  1.43587e+01 -1.73160e+01 -2.40938e-02
       C  1.22632e+01 -1.86347e+01 -1.80984e-01
       C  1.51097e+01 -1.86522e+01  3.04360e-03
       C  1.29763e+01 -1.48715e+01 -1.62467e-01
       C  1.44039e+01 -1.48497e+01 -1.09992e-01
       C  1.22055e+01 -1.61959e+01 -1.81297e-01
       C  1.51344e+01 -1.61816e+01 -1.62399e-01
       C  1.29553e+01 -1.24043e+01 -1.37381e-03
       C  1.44953e+01 -1.23617e+01 -1.27968e-01
       C  1.23470e+01 -1.36435e+01 -1.02260e-01
       C  1.50858e+01 -1.36215e+01 -1.28941e-01
       C  1.34166e-01 -3.05450e-02 -1.01245e-02
       C  1.55646e+00 -1.09962e-01 -5.69288e-03
       C -6.07841e-01 -1.28016e+00 -7.07710e-03
       C  2.29606e+00 -1.32572e+00 -5.48659e-02
       C  1.62795e-01 -1.73452e+01 -2.14178e-01
       C  1.54355e+00 -1.73470e+01 -1.51930e-01
       C -5.97505e-01 -1.85792e+01 -4.06164e-02
       C  2.24052e+00 -1.86316e+01 -1.98924e-01
       C  1.16331e-01 -1.49001e+01 -1.65257e-01
       C  1.55183e+00 -1.48585e+01 -1.68172e-01
       C -5.62798e-01 -1.61447e+01 -1.72241e-01
       C  2.26079e+00 -1.60587e+01 -2.72602e-01
       C  1.56962e-01 -1.24553e+01 -3.99115e-02
       C  1.59129e+00 -1.24458e+01  6.52904e-02
       C -6.11880e-01 -1.36327e+01 -6.66195e-02
       C  2.23118e+00 -1.36991e+01  7.15575e-02
       H  5.80667e+00 -1.02143e+01  5.72970e+00
       C  5.47551e+00 -9.44850e+00  5.03034e+00
       C  5.82998e+00 -8.10137e+00  5.15730e+00
       H  6.90709e+00 -7.82409e+00  5.66693e+00
       C  5.09985e+00 -7.15780e+00  4.61872e+00
       H  5.21911e+00 -6.15072e+00  4.88615e+00
       C  3.97952e+00 -7.42747e+00  3.90518e+00
       H  3.28411e+00 -6.65858e+00  3.46828e+00
       C  3.74705e+00 -8.74885e+00  3.51499e+00
       H  2.99800e+00 -8.84789e+00  2.72605e+00
       C  4.47463e+00 -9.81078e+00  4.03366e+00
       H  4.08977e+00 -1.08591e+01  3.71552e+00
140
# CELL(abcABC):   17.14040    19.79200    30.00000    90.00000    90.00000    90.00000  Step:         100  Bead:      23 positions{angstrom}  cell{angstrom}
       C  4.43082e+00 -9.99345e+00 -9.76318e-02
       C  5.78275e+00 -9.91368e+00 -2.33889e-02
       C  3.71063e+00 -1.12177e+01 -9.95016e-02
       C  6.47927e+00 -1.12115e+01 -5.86278e-02
       C  4.37894e+00 -7.46862e+00  5.78772e-02
       C  5.76284e+00 -7.50178e+00 -1.17665e-01
       C  3.62659e+00 -8.74736e+00 -9.07226e-02
       C  6.56370e+00 -8.67965e+00 -5.79949e-02
       C  4.44990e+00 -5.09007e+00 -1.79223e-03
       C  5.79355e+00 -5.06497e+00 -2.15677e-01
       C  3.68330e+00 -6.20744e+00 -3.26373e-02
       C  6.62255e+00 -6.25544e+00 -1.62735e-01
       C  4.52458e+00 -2.53473e+00 -7.41827e-02
       C  5.84830e+00 -2.58977e+00 -3.68855e-03
       C  3.74917e+00 -3.79866e+00 -5.12117e-02
       C  6.55467e+00 -3.78560e+00 -8.73740e-02
       C  8.69309e+00 -9.84552e+00 -7.09956e-02
       C  1.01085e+01 -9.93213e+00 -2.11438e-02
       C  8.04691e+00 -1.11423e+01 -1.18397e-01
       C  1.08344e+01 -1.11150e+01  9.04158e-02
       C  8.66921e+00 -7.43976e+00 -3.14664e-01
       C  1.01055e+01 -7.52681e+00 -1.30877e-01
       C  7.96268e+00 -8.73238e+00 -1.35553e-01
       C  1.08021e+01 -8.70667e+00 -9.27067e-02
       C  8.60711e+00 -4.92776e+00 -1.19564e-01
       C  1.01205e+01 -4.91771e+00 -7.79978e-02
       C  8.02183e+00 -6.18615e+00 -2.47571e-01
       C  1.08552e+01 -6.21196e+00 -1.31624e-01
       C  8.71966e+00 -2.51408e+00 -8.74445e-02
       C  1.01253e+01 -2.42932e+00 -1.04421e-01
       C  8.04402e+00 -3.70073e+00 -1.15587e-01
       C  1.08588e+01 -3.73295e+00 -1.11594e-01
       C  1.29233e+01 -9.93505e+00 -1.25872e-01
       C  1.44164e+01 -9.98967e+00 -1.99637e-01
       C  1.23097e+01 -1.12062e+01 -1.34232e-01
       C  1.50871e+01 -1.12328e+01 -1.31987e-01
       C  1.29599e+01 -7.50442e+00 -3.02649e-01
       C  1.44587e+01 -7.48319e+00 -4.07589e-01
       C  1.22164e+01 -8.73812e+00 -2.42265e-01
       C  1.51292e+01 -8.64488e+00 -1.43587e-01
       C  1.29217e+01 -4.97499e+00 -8.97322e-02
       C  1.44600e+01 -5.03257e+00 -3.81386e-02
       C  1.22630e+01 -6.19498e+00 -2.20412e-01
       C  1.51185e+01 -6.31171e+00 -2.21156e-01
       C  1.30729e+01 -2.48447e+00 -5.09893e-02
       C  1.44861e+01 -2.48812e+00 -6.72718e-03
       C  1.23654e+01 -3.71669e+00 -1.27042e-01
       C  1.51381e+01 -3.83349e+00 -1.21178e-02
       C  1.00497e-01 -9.96627e+00 -7.49426e-02
       C  1.57232e+00 -9.98368e+00 -1.70425e-01
       C -6.43843e-01 -1.12288e+01 -5.62030e-02
       C  2.33061e+00 -1.12070e+01 -2.48514e-01
       C  1.04026e-01 -7.49220e+00 -2.83092e-01
       C  1.55413e+00 -7.44673e+00 -2.83455e-01
       C -5.50175e-01 -8.75457e+00 -9.85044e-02
       C  2.27792e+00 -8.78944e+00 -9.21682e-02
       C  1.70557e-01 -4.95770e+00 -2.25567e-01
       C  1.59562e+00 -5.05496e+00 -1.62480e-01
       C -6.53464e-01 -6.22882e+00 -3.14297e-01
       C  2.30522e+00 -6.22619e+00 -1.16410e-01
       C  1.38967e-01 -2.44620e+00 -1.10284e-01
       C  1.52791e+00 -2.52319e+00 -1.11015e-01
       C -5.53068e-01 -3.78352e+00 -1.36052e-01
       C  2.25851e+00 -3.73523e+00 -3.83915e-02
       C  4.38690e+00 -6.38094e-02 -6.39102e-02
       C  5.86968e+00 -3.00929e-02 -1.36724e-01
       C  3.75107e+00 -1.30208e+00 -5.65372e-02
       C  6.60548e+00 -1.26793e+00 -1.43179e-01
       C  4.45295e+00 -1.74195e+01 -9.98162e-02
       C  5.89289e+00 -1.74374e+01 -4.04828e-02
       C  3.70320e+00 -1.86746e+01  5.26889e-02
       C  6.56806e+00 -1.85716e+01 -3.34625e-02
       C  4.42216e+00 -1.49099e+01 -4.44821e-02
       C  5.88180e+00 -1.48917e+01  7.95293e-02
       C  3.76447e+00 -1.61440e+01 -1.49188e-01
       C  6.58031e+00 -1.62685e+01  1.18766e-01
       C  4.35462e+00 -1.24544e+01 -2.02584e-02
       C  5.93063e+00 -1.24410e+01  6.75117e-02
       C  3.69924e+00 -1.36739e+01 -1.89416e-01
       C  6.53756e+00 -1.36798e+01  1.19696e-01
       C  8.74577e+00 -5.20452e-03  3.58221e-02
       C  1.02238e+01 -6.36406e-02  1.33938e-02
       C  8.05409e+00 -1.26080e+00 -1.78647e-01
       C  1.08855e+01 -1.32221e+00  8.97751e-03
       C  8.70490e+00 -1.73513e+01 -1.35691e-01
       C  1.01924e+01 -1.73733e+01 -1.41485e-01
       C  8.06493e+00 -1.86392e+01  9.70862e-02
       C  1.09323e+01 -1.85992e+01  2.08630e-02
       C  8.69215e+00 -1.49067e+01  1.34418e-01
       C  1.01476e+01 -1.49036e+01  3.11989e-02
       C  8.08447e+00 -1.61440e+01 -8.47794e-03
       C  1.08670e+01 -1.61678e+01 -4.80244e-02
       C  8.62913e+00 -1.23623e+01 -7.73264e-02
       C  1.01813e+01 -1.24301e+01  5.01278e-02
       C  7.90097e+00 -1.36132e+01  1.11357e-01
       C  1.09269e+01 -1.36663e+01  4.98438e-02
       C  1.30614e+01 -2.26617e-04 -1.22848e-01
       C  1.44121e+01 -6.09185e-02 -3.00022e-02
       C  1.22972e+01 -1.27855e+00 -1.29746e-01
       C  1.51756e+01 -1.24240e+00  1.02122e-02
       C  1.31120e+01 -1.73687e+01 -1.59521e-02
       C  1.44693e+01 -1.72790e+01 -2.19146e-01
       C  1.23506e+01 -1.86247e+01  3.78397e-02
       C  1.51602e+01 -1.86576e+01 -1.10711e-01
       C  1.29525e+01 -1.49287e+01 -2.53861e-02
       C  1.43998e+01 -1.49373e+01 -9.81937e-02
       C  1.23256e+01 -1.61996e+01  4.30085e-02
       C  1.51425e+01 -1.61647e+01 -1.12269e-01
       C  1.29645e+01 -1.24824e+01 -1.22269e-01
       C  1.44294e+01 -1.24714e+01 -1.24890e-01
       C  1.23416e+01 -1.36872e+01 -1.15926e-01
       C  1.51513e+01 -1.36288e+01 -1.15514e-01
       C  1.51910e-01 -3.06534e-02 -8.03874e-02
       C  1.56319e+00 -1.74451e-01 -3.84120e-03
       C -5.51791e-01 -1.26014e+00 -1.14608e-01
       C  2.31304e+00 -1.26546e+00 -6.19024e-02
       C  2.25757e-01 -1.73607e+01 -1.74516e-01
       C  1.60321e+00 -1.73604e+01  9.70663e-02
       C -5.74176e-01 -1.85785e+01 -8.31188e-02
       C  2.35017e+00 -1.85810e+01  1.96516e-02
       C  2.29936e-01 -1.49052e+01 -2.80257e-01
       C  1.57418e+00 -1.49250e+01 -1.99884e-01
       C -5.12117e-01 -1.61360e+01 -1.20979e-01
       C  2.29410e+00 -1.62384e+01 -1.15110e-01
       C  2.09975e-01 -1.24500e+01 -9.86634e-02
       C  1.63292e+00 -1.24644e+01 -1.99624e-01
       C -5.80455e-01 -1.36819e+01 -2.52553e-01
       C  2.34094e+00 -1.37483e+01 -1.05121e-01
       H  5.83692e+00 -1.01746e+01  5.57555e+00
       C  5.32545e+00 -9.47241e+00  4.99295e+00
       C  5.83451e+00 -8.17598e+00  5.03911e+00
       H  6.77675e+00 -7.86778e+00  5.28727e+00
       C  5.15295e+00 -7.10197e+00  4.52076e+00
       H  5.64699e+00 -6.11003e+00  4.54754e+00
       C  3.89745e+00 -7.33075e+00  3.97178e+00
       H  3.06976e+00 -6.44300e+00  3.93984e+00
       C  3.49330e+00 -8.63765e+00  3.74429e+00
       H  2.55030e+00 -8.83399e+00  3.30936e+00
       C  4.16559e+00 -9.75093e+00  4.19352e+00
       H  3.81219e+00 -1.08875e+01  4.17397e+00
