140
# CELL(abcABC):   17.14040    19.79200    30.00000    90.00000    90.00000    90.00000  Step:           0  Bead:      18 positions{angstrom}  cell{angstrom}
       C  4.46417e+00 -9.98395e+00 -9.73441e-02
       C  5.82670e+00 -1.00413e+01 -1.29278e-01
       C  3.72335e+00 -1.12573e+01 -9.15217e-02
       C  6.61277e+00 -1.11591e+01 -2.09710e-01
       C  4.36940e+00 -7.50903e+00 -9.44329e-02
       C  5.87634e+00 -7.53475e+00 -2.13460e-01
       C  3.71066e+00 -8.69523e+00 -5.16710e-03
       C  6.60122e+00 -8.74485e+00 -2.06656e-01
       C  4.45735e+00 -5.00475e+00 -1.42234e-01
       C  5.83915e+00 -5.00858e+00 -1.49999e-01
       C  3.68743e+00 -6.26026e+00 -1.66093e-01
       C  6.56759e+00 -6.29970e+00 -1.81063e-01
       C  4.45445e+00 -2.50230e+00 -1.46846e-01
       C  5.88433e+00 -2.54596e+00 -2.54881e-01
       C  3.72400e+00 -3.76117e+00 -2.40652e-01
       C  6.59969e+00 -3.75283e+00 -2.19723e-01
       C  8.73733e+00 -1.00051e+01 -1.38079e-01
       C  1.01298e+01 -9.92993e+00 -1.47047e-01
       C  8.10234e+00 -1.12225e+01  2.69759e-04
       C  1.08659e+01 -1.11771e+01 -1.18929e-01
       C  8.78778e+00 -7.53253e+00 -1.19396e-01
       C  1.01759e+01 -7.44459e+00 -1.66236e-01
       C  7.97946e+00 -8.69300e+00 -1.73982e-01
       C  1.09139e+01 -8.76545e+00 -2.96083e-01
       C  8.72062e+00 -4.94680e+00 -4.89188e-02
       C  1.00897e+01 -4.99965e+00 -1.70322e-01
       C  8.03480e+00 -6.29912e+00 -1.74659e-01
       C  1.07774e+01 -6.21519e+00 -2.62349e-01
       C  8.70569e+00 -2.58321e+00 -2.40813e-01
       C  1.01945e+01 -2.54542e+00 -2.69195e-01
       C  7.99994e+00 -3.76148e+00 -3.16737e-01
       C  1.08651e+01 -3.79464e+00 -3.99525e-03
       C  1.29232e+01 -9.89352e+00 -1.08418e-01
       C  1.44355e+01 -9.88197e+00 -1.84768e-01
       C  1.22414e+01 -1.11018e+01 -3.78037e-02
       C  1.51373e+01 -1.11681e+01 -1.44602e-01
       C  1.30168e+01 -7.45878e+00 -4.14433e-02
       C  1.44457e+01 -7.38026e+00 -1.33090e-01
       C  1.22989e+01 -8.66213e+00 -1.33529e-01
       C  1.51215e+01 -8.65231e+00 -1.97100e-01
       C  1.29776e+01 -4.89785e+00 -1.26433e-01
       C  1.43733e+01 -4.96786e+00 -1.84012e-01
       C  1.22854e+01 -6.24872e+00 -1.40026e-01
       C  1.51751e+01 -6.24515e+00 -1.79783e-01
       C  1.30110e+01 -2.52041e+00 -2.76737e-02
       C  1.44177e+01 -2.46402e+00 -8.41896e-02
       C  1.23399e+01 -3.75687e+00 -1.54644e-01
       C  1.51048e+01 -3.75267e+00 -1.17059e-01
       C  1.27390e-01 -9.96013e+00 -1.95383e-01
       C  1.58406e+00 -1.00676e+01  7.53483e-03
       C -6.08198e-01 -1.12404e+01 -1.98762e-01
       C  2.33904e+00 -1.12858e+01 -2.95426e-03
       C  2.27992e-01 -7.45385e+00 -9.21885e-02
       C  1.57459e+00 -7.56308e+00 -9.66060e-02
       C -6.40718e-01 -8.70638e+00 -1.83292e-01
       C  2.22720e+00 -8.82301e+00 -7.17747e-02
       C  1.02549e-01 -4.95142e+00 -1.21432e-01
       C  1.57761e+00 -5.01870e+00 -5.65412e-02
       C -6.12888e-01 -6.23719e+00 -1.47973e-01
       C  2.22501e+00 -6.30351e+00 -1.05078e-03
       C  8.91758e-02 -2.61580e+00  1.74189e-02
       C  1.55244e+00 -2.54466e+00  1.06187e-02
       C -5.30698e-01 -3.74950e+00 -8.11916e-02
       C  2.25787e+00 -3.74113e+00 -1.31007e-01
       C  4.40155e+00 -8.34495e-02  5.47124e-02
       C  5.85236e+00 -2.31683e-02  2.22490e-02
       C  3.68809e+00 -1.36906e+00 -7.61572e-02
       C  6.56842e+00 -1.31623e+00 -4.72769e-02
       C  4.45215e+00 -1.73192e+01 -8.02010e-02
       C  5.87733e+00 -1.74380e+01 -9.15907e-03
       C  3.74166e+00 -1.86616e+01 -1.20350e-01
       C  6.44926e+00 -1.86312e+01  1.97868e-01
       C  4.42329e+00 -1.49041e+01 -3.13380e-02
       C  5.87779e+00 -1.49119e+01 -1.58481e-02
       C  3.72404e+00 -1.61811e+01 -5.53123e-03
       C  6.60210e+00 -1.61041e+01  1.67100e-02
       C  4.47693e+00 -1.24233e+01 -6.36382e-02
       C  5.82990e+00 -1.23613e+01 -1.26017e-01
       C  3.68732e+00 -1.37087e+01 -4.09318e-02
       C  6.59447e+00 -1.36908e+01 -1.33942e-01
       C  8.73223e+00 -3.13528e-03 -5.01986e-02
       C  1.01128e+01 -5.44099e-02 -8.92225e-02
       C  8.07705e+00 -1.27892e+00 -2.98844e-03
       C  1.08436e+01 -1.32446e+00 -1.43079e-01
       C  8.71830e+00 -1.73768e+01  2.32740e-01
       C  1.01518e+01 -1.73618e+01  2.55981e-01
       C  7.96523e+00 -1.86267e+01  5.07607e-03
       C  1.08365e+01 -1.86148e+01 -7.60376e-02
       C  8.73304e+00 -1.48608e+01 -2.69293e-02
       C  1.01113e+01 -1.48510e+01 -5.12794e-02
       C  7.93644e+00 -1.61386e+01  1.20973e-01
       C  1.08988e+01 -1.60606e+01 -2.42670e-02
       C  8.77031e+00 -1.24416e+01  6.49197e-02
       C  1.01903e+01 -1.24065e+01 -6.82255e-02
       C  8.02173e+00 -1.36380e+01  1.84938e-02
       C  1.09121e+01 -1.36415e+01 -8.96978e-03
       C  1.29519e+01 -1.07250e-02 -1.97334e-01
       C  1.42740e+01 -7.76028e-02 -4.01883e-02
       C  1.22479e+01 -1.28120e+00  1.77333e-02
       C  1.51677e+01 -1.22538e+00 -8.46084e-02
       C  1.30159e+01 -1.74122e+01 -1.01144e-01
       C  1.43946e+01 -1.73377e+01 -6.02671e-02
       C  1.22424e+01 -1.85555e+01 -1.44145e-01
       C  1.50982e+01 -1.85373e+01  4.19904e-02
       C  1.29824e+01 -1.49040e+01 -1.88064e-01
       C  1.44488e+01 -1.48763e+01 -1.19377e-01
       C  1.22249e+01 -1.60827e+01 -1.72393e-01
       C  1.51800e+01 -1.61335e+01 -2.12424e-01
       C  1.30153e+01 -1.24333e+01 -7.44913e-02
       C  1.44895e+01 -1.23146e+01 -8.90612e-02
       C  1.23081e+01 -1.36139e+01 -2.24522e-02
       C  1.50592e+01 -1.36741e+01 -9.21664e-02
       C  1.72403e-01 -4.72315e-02  1.44333e-02
       C  1.55984e+00 -6.23815e-02 -4.59084e-02
       C -5.72142e-01 -1.30787e+00  1.77457e-02
       C  2.24298e+00 -1.33396e+00 -6.55500e-02
       C  1.87087e-01 -1.73347e+01 -2.53816e-01
       C  1.57452e+00 -1.73060e+01 -1.83511e-01
       C -5.42751e-01 -1.86036e+01 -5.09419e-02
       C  2.29913e+00 -1.86251e+01 -2.06545e-01
       C  6.41642e-02 -1.48552e+01 -1.53199e-01
       C  1.54149e+00 -1.48875e+01 -1.67895e-01
       C -5.49218e-01 -1.61523e+01 -2.31157e-01
       C  2.26740e+00 -1.61064e+01 -1.35470e-01
       C  8.17095e-02 -1.24264e+01 -6.51029e-02
       C  1.59109e+00 -1.24750e+01  3.11106e-02
       C -5.99941e-01 -1.36666e+01 -9.76504e-02
       C  2.25396e+00 -1.36223e+01  3.93871e-02
       H  5.83664e+00 -1.03504e+01  5.56483e+00
       C  5.40757e+00 -9.40908e+00  4.94277e+00
       C  5.86146e+00 -8.12355e+00  5.18519e+00
       H  6.70770e+00 -7.65415e+00  5.78303e+00
       C  5.04329e+00 -7.15537e+00  4.66414e+00
       H  5.19461e+00 -6.07560e+00  4.93615e+00
       C  3.99053e+00 -7.46130e+00  3.91090e+00
       H  3.26625e+00 -6.54343e+00  3.52593e+00
       C  3.77115e+00 -8.75440e+00  3.53325e+00
       H  2.98554e+00 -8.94341e+00  2.82103e+00
       C  4.47814e+00 -9.87812e+00  3.99821e+00
       H  4.12446e+00 -1.08778e+01  3.93007e+00
140
# CELL(abcABC):   17.14040    19.79200    30.00000    90.00000    90.00000    90.00000  Step:         100  Bead:      18 positions{angstrom}  cell{angstrom}
       C  4.41614e+00 -9.94416e+00 -3.66347e-02
       C  5.80856e+00 -9.95314e+00 -6.35371e-02
       C  3.66319e+00 -1.12636e+01 -1.43889e-01
       C  6.49377e+00 -1.11692e+01 -3.52378e-02
       C  4.38496e+00 -7.43931e+00  3.53261e-02
       C  5.87334e+00 -7.55599e+00 -1.19340e-01
       C  3.65768e+00 -8.72929e+00 -5.58558e-02
       C  6.55310e+00 -8.73469e+00 -1.39094e-01
       C  4.45089e+00 -5.06073e+00  5.71436e-02
       C  5.82354e+00 -5.08611e+00 -1.91163e-01
       C  3.72599e+00 -6.21326e+00 -5.45375e-02
       C  6.59210e+00 -6.25582e+00 -1.33298e-01
       C  4.39681e+00 -2.53322e+00 -1.41228e-01
       C  5.85238e+00 -2.54422e+00 -5.25084e-02
       C  3.67086e+00 -3.77682e+00  5.25618e-03
       C  6.52815e+00 -3.77083e+00 -1.24247e-01
       C  8.64385e+00 -9.85734e+00 -1.40852e-01
       C  1.00736e+01 -9.90753e+00 -2.57877e-02
       C  7.94423e+00 -1.11265e+01 -8.11304e-02
       C  1.08357e+01 -1.11179e+01  9.56300e-02
       C  8.72119e+00 -7.48242e+00 -2.80905e-01
       C  1.01215e+01 -7.55628e+00 -1.34452e-01
       C  7.98694e+00 -8.73813e+00 -1.62480e-01
       C  1.08326e+01 -8.65196e+00 -1.18214e-01
       C  8.67812e+00 -4.94750e+00 -1.48876e-01
       C  1.01629e+01 -4.93869e+00 -1.05214e-01
       C  8.01953e+00 -6.17946e+00 -3.15356e-01
       C  1.08595e+01 -6.22439e+00 -1.22158e-01
       C  8.65722e+00 -2.46466e+00 -8.88488e-03
       C  1.01788e+01 -2.41408e+00 -8.00795e-02
       C  8.04846e+00 -3.68610e+00 -1.97477e-01
       C  1.08359e+01 -3.70997e+00 -9.96302e-02
       C  1.29289e+01 -9.87859e+00 -1.80889e-01
       C  1.43569e+01 -9.92875e+00 -2.48045e-01
       C  1.22673e+01 -1.11716e+01 -1.67821e-01
       C  1.50973e+01 -1.11884e+01 -9.73767e-02
       C  1.29870e+01 -7.51855e+00 -3.75803e-01
       C  1.44681e+01 -7.48323e+00 -3.88811e-01
       C  1.22688e+01 -8.73308e+00 -2.61758e-01
       C  1.51578e+01 -8.69508e+00 -1.80592e-01
       C  1.30757e+01 -4.98118e+00 -1.08442e-01
       C  1.44396e+01 -5.10168e+00 -8.60234e-02
       C  1.23111e+01 -6.24448e+00 -1.81040e-01
       C  1.51683e+01 -6.27897e+00 -2.43549e-01
       C  1.30219e+01 -2.50410e+00 -8.63780e-02
       C  1.43942e+01 -2.49390e+00 -7.00833e-03
       C  1.23487e+01 -3.68911e+00 -1.14858e-01
       C  1.50977e+01 -3.75767e+00 -6.37184e-02
       C  1.04223e-01 -9.93923e+00 -1.74272e-02
       C  1.55835e+00 -1.00094e+01 -4.42959e-02
       C -5.76336e-01 -1.12853e+01 -4.28962e-02
       C  2.33064e+00 -1.12073e+01 -2.28651e-01
       C  9.84476e-02 -7.50087e+00 -1.91835e-01
       C  1.50851e+00 -7.49648e+00 -2.60466e-01
       C -6.12771e-01 -8.80073e+00 -1.59840e-01
       C  2.31713e+00 -8.74812e+00 -8.22550e-02
       C  2.27956e-01 -4.97949e+00 -2.46460e-01
       C  1.58269e+00 -5.01908e+00 -1.65014e-01
       C -6.02072e-01 -6.25255e+00 -2.88302e-01
       C  2.28831e+00 -6.17573e+00 -9.86219e-02
       C  1.21450e-01 -2.53400e+00 -1.41171e-01
       C  1.55950e+00 -2.53782e+00 -6.94721e-02
       C -5.57839e-01 -3.71144e+00 -2.06682e-01
       C  2.28124e+00 -3.79884e+00 -7.22571e-02
       C  4.43229e+00 -9.99538e-02 -3.16961e-02
       C  5.79866e+00 -2.72693e-02 -1.91961e-01
       C  3.70595e+00 -1.34401e+00 -6.15282e-02
       C  6.54417e+00 -1.35015e+00 -1.50633e-01
       C  4.42039e+00 -1.74758e+01 -1.40062e-01
       C  5.93036e+00 -1.74320e+01 -1.33015e-02
       C  3.75321e+00 -1.86932e+01 -3.75973e-04
       C  6.58505e+00 -1.86056e+01 -1.06098e-02
       C  4.48321e+00 -1.49654e+01 -6.17692e-02
       C  5.82196e+00 -1.48922e+01  1.45281e-01
       C  3.74379e+00 -1.61205e+01 -1.39909e-01
       C  6.51583e+00 -1.62007e+01  1.18808e-01
       C  4.31161e+00 -1.24761e+01 -3.50375e-02
       C  5.84233e+00 -1.24294e+01  3.20326e-02
       C  3.77205e+00 -1.37448e+01 -1.38540e-01
       C  6.51501e+00 -1.36956e+01  1.29791e-01
       C  8.75737e+00 -6.95776e-02  4.61419e-02
       C  1.02296e+01 -1.95988e-02  4.77668e-02
       C  8.02858e+00 -1.23341e+00 -1.52150e-01
       C  1.08457e+01 -1.27920e+00  3.02355e-02
       C  8.67426e+00 -1.73520e+01 -1.20227e-01
       C  1.01862e+01 -1.73666e+01 -1.91528e-01
       C  8.07428e+00 -1.86486e+01  4.44535e-02
       C  1.09326e+01 -1.86101e+01 -2.28162e-03
       C  8.69205e+00 -1.48852e+01  8.36551e-02
       C  1.01735e+01 -1.49080e+01  9.68923e-02
       C  8.04103e+00 -1.61365e+01  1.37788e-02
       C  1.08769e+01 -1.61335e+01 -9.84795e-02
       C  8.63202e+00 -1.23767e+01 -8.70918e-02
       C  1.01233e+01 -1.24114e+01  5.25080e-03
       C  7.97089e+00 -1.35882e+01  9.35032e-02
       C  1.08982e+01 -1.36471e+01  2.82400e-02
       C  1.30811e+01  2.88280e-02 -1.03673e-01
       C  1.43683e+01 -4.69025e-02 -3.37492e-02
       C  1.23326e+01 -1.24800e+00 -1.66449e-01
       C  1.51444e+01 -1.31041e+00  4.07453e-02
       C  1.30946e+01 -1.73701e+01 -5.90124e-02
       C  1.43972e+01 -1.73234e+01 -1.98089e-01
       C  1.23022e+01 -1.85846e+01  4.53167e-02
       C  1.51581e+01 -1.86358e+01 -9.40675e-02
       C  1.30111e+01 -1.49756e+01  1.64468e-02
       C  1.43723e+01 -1.49815e+01 -5.40732e-02
       C  1.22440e+01 -1.61853e+01  5.46751e-02
       C  1.51892e+01 -1.60686e+01 -9.57093e-02
       C  1.29857e+01 -1.24223e+01 -1.42420e-01
       C  1.44115e+01 -1.24519e+01 -8.78455e-02
       C  1.23299e+01 -1.36984e+01 -1.02859e-01
       C  1.51110e+01 -1.36437e+01 -8.14638e-02
       C  1.68324e-01 -2.50580e-02 -3.55394e-02
       C  1.61588e+00 -1.19662e-01 -2.08617e-02
       C -5.37311e-01 -1.27023e+00 -9.50553e-02
       C  2.27900e+00 -1.28833e+00 -1.11415e-01
       C  1.48526e-01 -1.73634e+01 -2.08905e-01
       C  1.62262e+00 -1.74110e+01  6.99355e-02
       C -5.62230e-01 -1.85890e+01 -5.73925e-02
       C  2.30931e+00 -1.85868e+01 -7.98849e-03
       C  1.69472e-01 -1.49035e+01 -2.78710e-01
       C  1.58499e+00 -1.49527e+01 -1.60619e-01
       C -5.43700e-01 -1.60591e+01 -1.02792e-01
       C  2.30897e+00 -1.62224e+01 -1.49289e-01
       C  2.07813e-01 -1.24280e+01 -1.70518e-01
       C  1.61112e+00 -1.24712e+01 -9.70832e-02
       C -5.04233e-01 -1.36801e+01 -1.89159e-01
       C  2.27878e+00 -1.37592e+01 -1.24927e-01
       H  5.68667e+00 -1.03574e+01  5.40496e+00
       C  5.31678e+00 -9.48655e+00  4.97544e+00
       C  5.89266e+00 -8.19270e+00  5.03081e+00
       H  6.89054e+00 -7.91294e+00  5.47143e+00
       C  5.14948e+00 -7.10394e+00  4.47538e+00
       H  5.59234e+00 -6.09555e+00  4.55684e+00
       C  3.84647e+00 -7.35041e+00  4.00930e+00
       H  3.39641e+00 -6.39555e+00  3.95931e+00
       C  3.51438e+00 -8.60022e+00  3.74443e+00
       H  2.47370e+00 -8.65620e+00  3.32408e+00
       C  4.18731e+00 -9.77777e+00  4.22649e+00
       H  3.95691e+00 -1.08727e+01  4.24949e+00
