140
# CELL(abcABC):   17.14040    19.79200    30.00000    90.00000    90.00000    90.00000  Step:           0  Bead:      27 positions{angstrom}  cell{angstrom}
       C  4.37516e+00 -1.00197e+01 -8.80670e-02
       C  5.88529e+00 -1.00254e+01 -9.63563e-02
       C  3.71717e+00 -1.11820e+01 -3.94860e-02
       C  6.55137e+00 -1.11810e+01 -2.73272e-01
       C  4.43421e+00 -7.50615e+00 -5.21762e-02
       C  5.81752e+00 -7.55247e+00 -1.77425e-01
       C  3.73647e+00 -8.75952e+00  2.08673e-02
       C  6.56700e+00 -8.83082e+00 -2.04035e-01
       C  4.43874e+00 -5.06657e+00 -1.53915e-01
       C  5.85452e+00 -5.06202e+00 -1.44704e-01
       C  3.73692e+00 -6.31406e+00 -8.54569e-02
       C  6.60531e+00 -6.28493e+00 -1.21414e-01
       C  4.44725e+00 -2.55098e+00 -9.02190e-02
       C  5.87794e+00 -2.53326e+00 -2.25854e-01
       C  3.71471e+00 -3.81696e+00 -2.84464e-01
       C  6.55297e+00 -3.68610e+00 -1.76113e-01
       C  8.73865e+00 -9.98054e+00 -1.31334e-01
       C  1.02004e+01 -9.93694e+00 -1.42384e-01
       C  8.01119e+00 -1.11783e+01  6.17989e-02
       C  1.09559e+01 -1.11648e+01 -6.41647e-02
       C  8.71114e+00 -7.53613e+00 -1.20319e-01
       C  1.01885e+01 -7.45521e+00 -1.20924e-01
       C  7.99504e+00 -8.73282e+00 -1.19760e-01
       C  1.08649e+01 -8.71529e+00 -2.17347e-01
       C  8.76880e+00 -4.98365e+00 -9.69194e-02
       C  1.01982e+01 -4.99561e+00 -1.71336e-01
       C  8.01846e+00 -6.27552e+00 -8.71512e-02
       C  1.08632e+01 -6.22400e+00 -2.42556e-01
       C  8.71972e+00 -2.59599e+00 -1.80161e-01
       C  1.01441e+01 -2.48117e+00 -2.59227e-01
       C  7.93450e+00 -3.81634e+00 -2.21933e-01
       C  1.08583e+01 -3.76923e+00 -4.01824e-02
       C  1.29737e+01 -9.92099e+00 -1.31887e-01
       C  1.44067e+01 -9.92041e+00 -1.78830e-01
       C  1.22978e+01 -1.11474e+01  4.11259e-02
       C  1.51106e+01 -1.11515e+01 -1.87250e-01
       C  1.30278e+01 -7.45972e+00 -6.48744e-03
       C  1.43931e+01 -7.47532e+00 -1.87956e-01
       C  1.22523e+01 -8.71312e+00 -1.60081e-01
       C  1.50846e+01 -8.61045e+00 -1.23113e-01
       C  1.30221e+01 -4.96651e+00 -8.29937e-02
       C  1.45074e+01 -5.07198e+00 -1.50406e-01
       C  1.22963e+01 -6.21316e+00 -1.71450e-01
       C  1.51441e+01 -6.25325e+00 -1.42140e-01
       C  1.29814e+01 -2.57125e+00  1.57481e-02
       C  1.44850e+01 -2.50813e+00 -1.14120e-01
       C  1.23266e+01 -3.72706e+00 -1.19099e-01
       C  1.51604e+01 -3.74411e+00 -3.95089e-02
       C  1.07924e-01 -9.98526e+00 -2.38145e-01
       C  1.53002e+00 -1.00477e+01 -7.76204e-02
       C -5.85401e-01 -1.12248e+01 -1.22182e-01
       C  2.25461e+00 -1.12700e+01 -3.19336e-02
       C  1.59115e-01 -7.42232e+00 -1.25272e-01
       C  1.55339e+00 -7.50456e+00 -1.21955e-01
       C -6.08444e-01 -8.77221e+00 -1.93525e-01
       C  2.21590e+00 -8.73911e+00 -1.01182e-01
       C  1.47536e-01 -5.01826e+00  3.07226e-03
       C  1.60123e+00 -5.05918e+00 -4.11346e-02
       C -5.45125e-01 -6.28076e+00 -9.40010e-02
       C  2.28318e+00 -6.21154e+00 -3.02103e-03
       C  1.28447e-01 -2.53755e+00  1.74605e-02
       C  1.54375e+00 -2.50293e+00  6.78573e-02
       C -6.19816e-01 -3.72960e+00 -7.25257e-02
       C  2.29666e+00 -3.74672e+00 -1.95978e-01
       C  4.43393e+00 -1.09987e-01 -8.87033e-02
       C  5.88076e+00 -6.58586e-02  4.55945e-02
       C  3.69627e+00 -1.27389e+00 -1.00339e-01
       C  6.56161e+00 -1.26330e+00 -1.54074e-02
       C  4.39262e+00 -1.72777e+01 -4.01739e-02
       C  5.81545e+00 -1.74021e+01 -4.62569e-02
       C  3.68875e+00 -1.85928e+01 -1.78627e-01
       C  6.60070e+00 -1.85915e+01  1.46507e-01
       C  4.48121e+00 -1.48624e+01  1.06013e-02
       C  5.88460e+00 -1.48998e+01 -5.03104e-02
       C  3.67483e+00 -1.61390e+01 -4.23044e-02
       C  6.58076e+00 -1.61646e+01  2.78684e-02
       C  4.41494e+00 -1.24523e+01 -4.23920e-02
       C  5.85514e+00 -1.24054e+01 -1.83874e-01
       C  3.73817e+00 -1.36237e+01 -7.33393e-02
       C  6.59270e+00 -1.36642e+01 -8.36286e-02
       C  8.75818e+00 -5.38866e-02  2.97072e-02
       C  1.02016e+01 -5.61719e-02 -9.67453e-02
       C  8.05354e+00 -1.26104e+00 -4.57062e-02
       C  1.07659e+01 -1.27686e+00 -1.21187e-01
       C  8.67077e+00 -1.74168e+01  3.06763e-01
       C  1.00972e+01 -1.72944e+01  2.08620e-01
       C  7.93633e+00 -1.86464e+01  4.90063e-02
       C  1.07856e+01 -1.86035e+01  1.28126e-02
       C  8.71668e+00 -1.49037e+01 -1.80532e-02
       C  1.00999e+01 -1.48494e+01 -2.26669e-02
       C  7.96494e+00 -1.61153e+01  8.64789e-02
       C  1.08910e+01 -1.61094e+01 -3.02135e-02
       C  8.75329e+00 -1.24210e+01  1.28370e-01
       C  1.01399e+01 -1.23743e+01 -2.74440e-02
       C  8.00305e+00 -1.36673e+01  3.22950e-02
       C  1.09098e+01 -1.36547e+01  1.80052e-03
       C  1.29526e+01 -1.60861e-02 -1.75687e-01
       C  1.43975e+01  2.56488e-02  5.70506e-02
       C  1.23359e+01 -1.31525e+00  1.49431e-02
       C  1.50860e+01 -1.21008e+00 -4.56648e-02
       C  1.29647e+01 -1.73944e+01 -9.93637e-02
       C  1.44327e+01 -1.73488e+01  1.54208e-03
       C  1.22209e+01 -1.86163e+01 -2.15725e-01
       C  1.50787e+01 -1.86276e+01  2.82750e-02
       C  1.29625e+01 -1.48809e+01 -1.77233e-01
       C  1.44318e+01 -1.48710e+01 -6.17981e-02
       C  1.22085e+01 -1.62168e+01 -2.15114e-01
       C  1.51554e+01 -1.62308e+01 -1.17908e-01
       C  1.30118e+01 -1.24081e+01  6.03273e-04
       C  1.44642e+01 -1.24052e+01 -1.10155e-01
       C  1.23436e+01 -1.36185e+01 -6.44376e-02
       C  1.50800e+01 -1.36283e+01 -1.36410e-01
       C  1.85837e-01 -5.36331e-02 -2.25394e-02
       C  1.59858e+00 -1.55022e-01 -1.78539e-02
       C -6.23332e-01 -1.28074e+00  2.16126e-02
       C  2.28931e+00 -1.32827e+00 -1.12474e-01
       C  1.42855e-01 -1.73201e+01 -2.45617e-01
       C  1.53018e+00 -1.73788e+01 -1.67279e-01
       C -6.33624e-01 -1.86132e+01 -2.52786e-02
       C  2.21754e+00 -1.86195e+01 -1.97392e-01
       C  1.24965e-01 -1.49206e+01 -1.78662e-01
       C  1.55826e+00 -1.49255e+01 -1.62815e-01
       C -5.94938e-01 -1.61741e+01 -1.78931e-01
       C  2.29143e+00 -1.61065e+01 -1.69601e-01
       C  1.23304e-01 -1.24500e+01 -4.21549e-02
       C  1.59516e+00 -1.24378e+01  6.13987e-02
       C -6.32009e-01 -1.36707e+01 -6.74558e-02
       C  2.26084e+00 -1.36878e+01  1.18961e-01
       H  5.83703e+00 -1.03084e+01  5.80395e+00
       C  5.47755e+00 -9.42704e+00  5.03162e+00
       C  5.83393e+00 -8.07854e+00  5.13413e+00
       H  7.00187e+00 -8.09418e+00  5.65563e+00
       C  5.05465e+00 -7.09449e+00  4.69283e+00
       H  5.34979e+00 -6.08057e+00  4.89828e+00
       C  3.96896e+00 -7.39435e+00  3.92647e+00
       H  3.16755e+00 -6.60795e+00  3.45179e+00
       C  3.77098e+00 -8.72623e+00  3.52867e+00
       H  3.07723e+00 -8.95265e+00  2.76880e+00
       C  4.48106e+00 -9.81673e+00  4.08301e+00
       H  4.12806e+00 -1.09330e+01  3.63209e+00
140
# CELL(abcABC):   17.14040    19.79200    30.00000    90.00000    90.00000    90.00000  Step:         100  Bead:      27 positions{angstrom}  cell{angstrom}
       C  4.39996e+00 -9.95227e+00 -1.16964e-01
       C  5.81530e+00 -9.89794e+00 -1.35266e-02
       C  3.71647e+00 -1.11716e+01 -9.19387e-02
       C  6.44177e+00 -1.11824e+01 -9.38832e-02
       C  4.42484e+00 -7.41485e+00 -4.95201e-02
       C  5.76410e+00 -7.43937e+00 -1.15863e-01
       C  3.65742e+00 -8.77155e+00 -8.40053e-02
       C  6.57662e+00 -8.73328e+00 -1.04567e-01
       C  4.43977e+00 -5.03008e+00  4.60684e-02
       C  5.81337e+00 -5.00434e+00 -2.10662e-01
       C  3.70270e+00 -6.16956e+00 -4.18360e-03
       C  6.58028e+00 -6.25707e+00 -2.51034e-01
       C  4.52842e+00 -2.54454e+00  7.75990e-03
       C  5.86384e+00 -2.54029e+00 -1.75629e-02
       C  3.80110e+00 -3.80501e+00  2.42017e-02
       C  6.54487e+00 -3.73961e+00 -1.24537e-01
       C  8.69393e+00 -9.86007e+00 -7.97653e-02
       C  1.01526e+01 -9.83511e+00  2.43889e-02
       C  8.03855e+00 -1.12054e+01 -8.56826e-02
       C  1.08986e+01 -1.10592e+01  4.87008e-02
       C  8.68100e+00 -7.41806e+00 -2.26007e-01
       C  1.00969e+01 -7.46998e+00 -1.33018e-01
       C  7.92538e+00 -8.68346e+00 -9.15744e-02
       C  1.08255e+01 -8.61602e+00 -1.41499e-01
       C  8.62866e+00 -4.92888e+00 -1.00066e-01
       C  1.01466e+01 -4.91174e+00 -1.08962e-01
       C  8.03251e+00 -6.18086e+00 -2.14536e-01
       C  1.08377e+01 -6.20226e+00 -5.86039e-02
       C  8.71576e+00 -2.58142e+00 -1.04056e-01
       C  1.01536e+01 -2.47618e+00 -1.00287e-01
       C  7.97492e+00 -3.71503e+00 -1.35547e-01
       C  1.08528e+01 -3.71164e+00 -7.12061e-02
       C  1.29574e+01 -9.92999e+00 -2.11539e-01
       C  1.43728e+01 -9.95436e+00 -1.42833e-01
       C  1.22938e+01 -1.12145e+01 -1.70630e-01
       C  1.51431e+01 -1.11815e+01 -1.47996e-01
       C  1.29624e+01 -7.46776e+00 -2.75436e-01
       C  1.44187e+01 -7.48164e+00 -4.27732e-01
       C  1.22543e+01 -8.70104e+00 -2.62691e-01
       C  1.50707e+01 -8.66528e+00 -1.54924e-01
       C  1.29187e+01 -4.96441e+00 -1.10742e-01
       C  1.44206e+01 -5.00303e+00  2.83194e-02
       C  1.22149e+01 -6.24720e+00 -1.93907e-01
       C  1.50910e+01 -6.31102e+00 -1.90806e-01
       C  1.30723e+01 -2.47092e+00 -1.02053e-02
       C  1.44965e+01 -2.48203e+00 -6.45616e-03
       C  1.22918e+01 -3.78501e+00 -1.52948e-01
       C  1.52067e+01 -3.81206e+00 -5.72969e-03
       C  1.34313e-01 -9.98857e+00 -7.28248e-02
       C  1.53235e+00 -9.98274e+00 -1.02914e-01
       C -5.92900e-01 -1.11835e+01 -9.03535e-02
       C  2.32517e+00 -1.12179e+01 -1.81924e-01
       C  1.11198e-01 -7.47534e+00 -2.67155e-01
       C  1.55510e+00 -7.46938e+00 -2.98446e-01
       C -5.68282e-01 -8.75935e+00 -1.97024e-01
       C  2.28034e+00 -8.68085e+00 -5.90734e-02
       C  1.06739e-01 -5.06174e+00 -2.51656e-01
       C  1.60726e+00 -5.03471e+00 -2.40472e-01
       C -5.91275e-01 -6.27054e+00 -2.85609e-01
       C  2.30344e+00 -6.24033e+00 -8.80656e-02
       C  1.26108e-01 -2.45339e+00 -2.13248e-01
       C  1.53373e+00 -2.60720e+00 -1.59140e-01
       C -5.55469e-01 -3.81768e+00 -2.30758e-01
       C  2.23688e+00 -3.72835e+00 -8.45192e-02
       C  4.35471e+00 -7.91118e-02 -5.31490e-02
       C  5.89670e+00 -9.44238e-02 -1.71323e-01
       C  3.71187e+00 -1.27265e+00 -4.29487e-02
       C  6.68599e+00 -1.29818e+00 -1.43841e-01
       C  4.43100e+00 -1.74258e+01 -9.03702e-02
       C  5.87350e+00 -1.74608e+01  1.77954e-02
       C  3.65702e+00 -1.87009e+01  7.51706e-03
       C  6.58847e+00 -1.86486e+01 -4.80349e-02
       C  4.34891e+00 -1.48635e+01 -1.02904e-01
       C  5.86042e+00 -1.49602e+01  1.37362e-01
       C  3.75270e+00 -1.61766e+01 -1.85719e-01
       C  6.61164e+00 -1.61691e+01  6.22153e-02
       C  4.39081e+00 -1.24478e+01 -8.22277e-02
       C  5.88731e+00 -1.24782e+01  5.48859e-02
       C  3.69988e+00 -1.37032e+01 -1.84946e-01
       C  6.58389e+00 -1.36997e+01  6.89886e-02
       C  8.79409e+00  9.09801e-03  3.17409e-02
       C  1.01460e+01 -6.79446e-02  2.86252e-02
       C  8.04379e+00 -1.27658e+00 -1.50342e-01
       C  1.08543e+01 -1.35051e+00  4.42956e-02
       C  8.74012e+00 -1.73723e+01 -8.61726e-02
       C  1.01205e+01 -1.73799e+01 -8.77769e-02
       C  8.08786e+00 -1.85880e+01  9.89674e-02
       C  1.09244e+01 -1.85524e+01  3.36728e-02
       C  8.70794e+00 -1.48918e+01  1.63364e-01
       C  1.01501e+01 -1.48868e+01  1.03605e-02
       C  7.99704e+00 -1.61431e+01 -4.20075e-02
       C  1.08688e+01 -1.61399e+01 -1.10559e-01
       C  8.59482e+00 -1.23558e+01 -5.81600e-02
       C  1.00983e+01 -1.23800e+01  8.98284e-02
       C  7.89280e+00 -1.36531e+01  1.24736e-01
       C  1.08857e+01 -1.35734e+01  1.22081e-02
       C  1.30599e+01  6.76504e-03 -9.38506e-02
       C  1.45149e+01 -6.20268e-02 -4.28546e-02
       C  1.23146e+01 -1.28536e+00 -2.85081e-02
       C  1.51654e+01 -1.24744e+00 -2.32220e-03
       C  1.31078e+01 -1.73658e+01  5.05469e-02
       C  1.45141e+01 -1.73635e+01 -2.69384e-01
       C  1.22991e+01 -1.86377e+01  3.79424e-02
       C  1.51017e+01 -1.86066e+01 -6.99340e-02
       C  1.29419e+01 -1.48988e+01 -2.72413e-02
       C  1.44097e+01 -1.49439e+01 -7.64286e-02
       C  1.23215e+01 -1.61906e+01  8.39594e-04
       C  1.51394e+01 -1.62132e+01 -1.23081e-01
       C  1.29529e+01 -1.24537e+01 -1.78594e-01
       C  1.44287e+01 -1.24293e+01 -7.38038e-02
       C  1.23454e+01 -1.37177e+01 -1.34047e-01
       C  1.51652e+01 -1.36850e+01 -1.10059e-01
       C  1.71018e-01 -2.56020e-03 -4.40110e-02
       C  1.58704e+00 -4.80295e-02 -1.53047e-02
       C -5.60132e-01 -1.23460e+00 -1.38666e-01
       C  2.31711e+00 -1.26283e+00 -8.30906e-02
       C  1.87635e-01 -1.74107e+01 -1.73238e-01
       C  1.65922e+00 -1.73763e+01  7.14620e-02
       C -5.91593e-01 -1.85996e+01 -1.01908e-01
       C  2.32664e+00 -1.86537e+01  7.36198e-02
       C  1.50937e-01 -1.49504e+01 -2.71687e-01
       C  1.58478e+00 -1.49132e+01 -2.01928e-01
       C -5.23259e-01 -1.61547e+01 -1.39914e-01
       C  2.28960e+00 -1.62287e+01 -9.86015e-02
       C  1.56682e-01 -1.24953e+01 -1.06365e-01
       C  1.60084e+00 -1.24687e+01 -1.67438e-01
       C -6.26168e-01 -1.37107e+01 -2.76566e-01
       C  2.31701e+00 -1.37096e+01 -1.53432e-01
       H  6.01664e+00 -1.02675e+01  5.56959e+00
       C  5.31475e+00 -9.50328e+00  4.98096e+00
       C  5.84750e+00 -8.18261e+00  5.03579e+00
       H  6.81256e+00 -7.83668e+00  5.32978e+00
       C  5.13471e+00 -7.11193e+00  4.52092e+00
       H  5.60161e+00 -6.06162e+00  4.56087e+00
       C  3.93673e+00 -7.27382e+00  3.95637e+00
       H  3.13184e+00 -6.46576e+00  3.92677e+00
       C  3.41661e+00 -8.65381e+00  3.73246e+00
       H  2.45499e+00 -8.70328e+00  3.12124e+00
       C  4.16591e+00 -9.70674e+00  4.23547e+00
       H  3.76085e+00 -1.07395e+01  4.07681e+00
