140
# CELL(abcABC):   17.14040    19.79200    30.00000    90.00000    90.00000    90.00000  Step:           0  Bead:      28 positions{angstrom}  cell{angstrom}
       C  4.37164e+00 -1.00087e+01 -6.61560e-02
       C  5.86758e+00 -1.00174e+01 -9.78234e-02
       C  3.73779e+00 -1.11724e+01 -1.79950e-02
       C  6.55304e+00 -1.11540e+01 -2.61774e-01
       C  4.41416e+00 -7.48617e+00 -3.57694e-02
       C  5.84824e+00 -7.52775e+00 -1.57067e-01
       C  3.72778e+00 -8.78137e+00 -1.22822e-02
       C  6.58542e+00 -8.79752e+00 -2.11756e-01
       C  4.41786e+00 -5.05751e+00 -1.75077e-01
       C  5.86119e+00 -5.07270e+00 -1.81166e-01
       C  3.71746e+00 -6.27870e+00 -4.04405e-02
       C  6.58427e+00 -6.28678e+00 -9.96127e-02
       C  4.44297e+00 -2.57242e+00 -9.85771e-02
       C  5.92006e+00 -2.55580e+00 -2.23816e-01
       C  3.71064e+00 -3.80404e+00 -3.11829e-01
       C  6.54296e+00 -3.72742e+00 -1.78875e-01
       C  8.71006e+00 -9.95236e+00 -1.01850e-01
       C  1.01757e+01 -9.93076e+00 -1.09991e-01
       C  7.99065e+00 -1.12246e+01  6.91695e-02
       C  1.09372e+01 -1.11804e+01 -7.61808e-02
       C  8.68989e+00 -7.53530e+00 -1.08287e-01
       C  1.01858e+01 -7.48630e+00 -1.45332e-01
       C  7.99809e+00 -8.72812e+00 -1.22219e-01
       C  1.08677e+01 -8.73962e+00 -1.95651e-01
       C  8.78709e+00 -4.96761e+00 -1.03685e-01
       C  1.02097e+01 -5.01565e+00 -1.62070e-01
       C  8.06648e+00 -6.21954e+00 -1.00964e-01
       C  1.08694e+01 -6.24078e+00 -2.27400e-01
       C  8.71757e+00 -2.58504e+00 -2.00685e-01
       C  1.01280e+01 -2.50239e+00 -2.62991e-01
       C  7.91846e+00 -3.82024e+00 -2.38227e-01
       C  1.08862e+01 -3.78207e+00 -3.96650e-02
       C  1.29573e+01 -9.92353e+00 -1.42980e-01
       C  1.44074e+01 -9.91350e+00 -1.76041e-01
       C  1.23212e+01 -1.11576e+01  3.46637e-02
       C  1.50919e+01 -1.11455e+01 -1.81234e-01
       C  1.30385e+01 -7.47558e+00  2.40820e-03
       C  1.43878e+01 -7.48500e+00 -1.81849e-01
       C  1.22695e+01 -8.69457e+00 -1.69154e-01
       C  1.50935e+01 -8.61520e+00 -1.33711e-01
       C  1.29976e+01 -4.93841e+00 -1.17080e-01
       C  1.44925e+01 -5.07707e+00 -1.47113e-01
       C  1.23094e+01 -6.22836e+00 -1.45157e-01
       C  1.51425e+01 -6.21955e+00 -1.37186e-01
       C  1.29728e+01 -2.52692e+00  3.02624e-02
       C  1.44879e+01 -2.47410e+00 -5.82051e-02
       C  1.22927e+01 -3.73056e+00 -1.07907e-01
       C  1.51789e+01 -3.74982e+00 -3.44960e-02
       C  1.01203e-01 -9.95363e+00 -2.26359e-01
       C  1.54043e+00 -1.00656e+01 -7.84614e-02
       C -5.59612e-01 -1.12001e+01 -1.29702e-01
       C  2.29007e+00 -1.12653e+01 -2.56008e-02
       C  1.50612e-01 -7.42043e+00 -1.23672e-01
       C  1.57246e+00 -7.53874e+00 -1.30855e-01
       C -6.04936e-01 -8.75876e+00 -1.75739e-01
       C  2.22369e+00 -8.76028e+00 -8.74714e-02
       C  1.59137e-01 -4.97937e+00 -2.65562e-03
       C  1.59729e+00 -5.04036e+00 -5.24231e-02
       C -5.48306e-01 -6.27268e+00 -1.27542e-01
       C  2.30124e+00 -6.22928e+00 -5.14566e-03
       C  1.15505e-01 -2.52147e+00  1.32258e-02
       C  1.55397e+00 -2.49092e+00  4.66160e-02
       C -6.41144e-01 -3.74815e+00 -7.40262e-02
       C  2.30440e+00 -3.74389e+00 -2.01508e-01
       C  4.46303e+00 -9.63419e-02 -6.14778e-02
       C  5.86186e+00 -9.35894e-02  3.55495e-02
       C  3.68966e+00 -1.26076e+00 -1.31907e-01
       C  6.56582e+00 -1.26032e+00 -5.64578e-02
       C  4.37874e+00 -1.73078e+01 -4.94922e-02
       C  5.82100e+00 -1.73911e+01 -4.49622e-02
       C  3.69103e+00 -1.85858e+01 -1.72227e-01
       C  6.60887e+00 -1.85543e+01  1.32468e-01
       C  4.46780e+00 -1.48760e+01  1.50176e-02
       C  5.87714e+00 -1.49095e+01 -7.15596e-02
       C  3.66234e+00 -1.61185e+01  5.76154e-03
       C  6.58571e+00 -1.61467e+01  3.89347e-02
       C  4.41560e+00 -1.24355e+01 -7.77723e-02
       C  5.88064e+00 -1.23971e+01 -1.86789e-01
       C  3.74603e+00 -1.36220e+01 -5.04683e-02
       C  6.59380e+00 -1.36916e+01 -7.09688e-02
       C  8.77511e+00 -4.90448e-02  1.52902e-02
       C  1.02024e+01 -7.27971e-02 -1.13214e-01
       C  8.01850e+00 -1.25005e+00 -4.33328e-02
       C  1.07561e+01 -1.29785e+00 -9.97000e-02
       C  8.69909e+00 -1.74359e+01  2.87707e-01
       C  1.00589e+01 -1.73159e+01  1.73107e-01
       C  7.93427e+00 -1.86638e+01  6.36380e-02
       C  1.07881e+01 -1.85961e+01  4.84137e-02
       C  8.73158e+00 -1.49105e+01 -4.92083e-03
       C  1.01267e+01 -1.48991e+01 -4.07599e-02
       C  8.00389e+00 -1.61088e+01  8.07406e-02
       C  1.08618e+01 -1.60968e+01  1.03739e-02
       C  8.76605e+00 -1.24354e+01  1.04725e-01
       C  1.01133e+01 -1.23741e+01 -2.84376e-02
       C  7.99388e+00 -1.36773e+01  3.04808e-02
       C  1.09086e+01 -1.36743e+01  2.02499e-02
       C  1.29700e+01 -7.39766e-03 -1.68095e-01
       C  1.43789e+01  3.86429e-02  6.48094e-02
       C  1.23413e+01 -1.31759e+00  1.55840e-02
       C  1.50585e+01 -1.24110e+00 -2.10070e-02
       C  1.30085e+01 -1.74107e+01 -1.01404e-01
       C  1.44653e+01 -1.73776e+01 -9.70801e-03
       C  1.22165e+01 -1.85967e+01 -1.89228e-01
       C  1.50912e+01 -1.86216e+01  1.02293e-02
       C  1.29741e+01 -1.49156e+01 -1.99219e-01
       C  1.44175e+01 -1.48746e+01 -1.12537e-01
       C  1.22560e+01 -1.62262e+01 -2.09833e-01
       C  1.51627e+01 -1.62168e+01 -1.48930e-01
       C  1.30461e+01 -1.23812e+01 -5.87993e-03
       C  1.44382e+01 -1.23735e+01 -8.89037e-02
       C  1.23394e+01 -1.35963e+01 -6.98380e-02
       C  1.50853e+01 -1.36327e+01 -9.77824e-02
       C  1.86357e-01 -3.62102e-02 -6.19610e-03
       C  1.63246e+00 -1.14790e-01  3.58601e-03
       C -6.33947e-01 -1.29822e+00  2.41023e-02
       C  2.28967e+00 -1.30463e+00 -8.05561e-02
       C  1.41666e-01 -1.73063e+01 -2.14187e-01
       C  1.51830e+00 -1.73629e+01 -1.70072e-01
       C -6.20363e-01 -1.86005e+01 -4.44686e-02
       C  2.24909e+00 -1.86449e+01 -2.00850e-01
       C  1.32424e-01 -1.49060e+01 -1.82985e-01
       C  1.57673e+00 -1.49142e+01 -1.63102e-01
       C -6.02215e-01 -1.61775e+01 -1.60232e-01
       C  2.26211e+00 -1.61261e+01 -1.48648e-01
       C  1.21905e-01 -1.24540e+01 -4.71053e-02
       C  1.56420e+00 -1.24510e+01  1.02863e-01
       C -6.33089e-01 -1.36641e+01 -6.04012e-02
       C  2.24559e+00 -1.37010e+01  1.05958e-01
       H  5.85118e+00 -1.02320e+01  5.77468e+00
       C  5.47399e+00 -9.43142e+00  5.05297e+00
       C  5.84757e+00 -8.09401e+00  5.13120e+00
       H  7.01802e+00 -8.01852e+00  5.54802e+00
       C  5.03083e+00 -7.09558e+00  4.70305e+00
       H  5.43501e+00 -6.16611e+00  5.03882e+00
       C  3.97871e+00 -7.40379e+00  3.92049e+00
       H  3.16409e+00 -6.68044e+00  3.54627e+00
       C  3.73276e+00 -8.73258e+00  3.50821e+00
       H  2.99210e+00 -8.95540e+00  2.69885e+00
       C  4.49858e+00 -9.79456e+00  4.06406e+00
       H  4.24932e+00 -1.09316e+01  3.61574e+00
140
# CELL(abcABC):   17.14040    19.79200    30.00000    90.00000    90.00000    90.00000  Step:         100  Bead:      28 positions{angstrom}  cell{angstrom}
       C  4.39551e+00 -9.97352e+00 -1.12114e-01
       C  5.83359e+00 -9.90731e+00 -4.05820e-02
       C  3.67818e+00 -1.11754e+01 -1.17869e-01
       C  6.46232e+00 -1.12120e+01 -8.35038e-02
       C  4.41325e+00 -7.42153e+00 -4.70518e-02
       C  5.77586e+00 -7.44572e+00 -1.09183e-01
       C  3.66683e+00 -8.77271e+00 -5.05900e-02
       C  6.56330e+00 -8.73191e+00 -9.55323e-02
       C  4.43811e+00 -5.00854e+00  6.37587e-02
       C  5.81431e+00 -5.00505e+00 -2.26149e-01
       C  3.67024e+00 -6.19193e+00 -3.09309e-02
       C  6.61022e+00 -6.25656e+00 -2.69542e-01
       C  4.50918e+00 -2.52618e+00 -3.29629e-03
       C  5.87486e+00 -2.51203e+00  6.79029e-03
       C  3.81273e+00 -3.81417e+00  9.20462e-04
       C  6.55512e+00 -3.71433e+00 -1.43796e-01
       C  8.70738e+00 -9.85873e+00 -8.03027e-02
       C  1.01502e+01 -9.82761e+00  3.77104e-02
       C  8.00957e+00 -1.12111e+01 -4.19840e-02
       C  1.09205e+01 -1.11078e+01  7.11669e-02
       C  8.64719e+00 -7.44336e+00 -2.33284e-01
       C  1.00981e+01 -7.42446e+00 -1.12791e-01
       C  7.92431e+00 -8.66935e+00 -7.89882e-02
       C  1.08403e+01 -8.61493e+00 -1.34139e-01
       C  8.65451e+00 -4.93468e+00 -7.86796e-02
       C  1.01601e+01 -4.90870e+00 -1.06092e-01
       C  8.03180e+00 -6.22473e+00 -2.07252e-01
       C  1.08045e+01 -6.18290e+00 -4.13264e-02
       C  8.72095e+00 -2.58454e+00 -9.33963e-02
       C  1.01372e+01 -2.46885e+00 -1.10488e-01
       C  7.96284e+00 -3.71968e+00 -8.78059e-02
       C  1.08771e+01 -3.71025e+00 -4.21742e-02
       C  1.29645e+01 -9.93056e+00 -2.30296e-01
       C  1.43704e+01 -9.95431e+00 -1.24616e-01
       C  1.22879e+01 -1.12241e+01 -2.03852e-01
       C  1.51505e+01 -1.11813e+01 -1.26305e-01
       C  1.29678e+01 -7.47130e+00 -2.96416e-01
       C  1.43974e+01 -7.44271e+00 -4.12865e-01
       C  1.22508e+01 -8.70291e+00 -2.35709e-01
       C  1.50974e+01 -8.70519e+00 -1.29716e-01
       C  1.29355e+01 -4.94313e+00 -1.23124e-01
       C  1.44301e+01 -5.00657e+00 -4.19393e-03
       C  1.22330e+01 -6.25198e+00 -1.78549e-01
       C  1.50966e+01 -6.27794e+00 -1.58961e-01
       C  1.30730e+01 -2.49850e+00 -2.52482e-02
       C  1.44848e+01 -2.47699e+00  8.12444e-03
       C  1.22909e+01 -3.78337e+00 -1.75538e-01
       C  1.52123e+01 -3.80118e+00 -8.33578e-03
       C  1.49337e-01 -9.99197e+00 -5.30879e-02
       C  1.52093e+00 -9.97797e+00 -8.16720e-02
       C -5.87438e-01 -1.11730e+01 -8.80580e-02
       C  2.30254e+00 -1.12192e+01 -1.85001e-01
       C  1.26713e-01 -7.49611e+00 -2.79420e-01
       C  1.57949e+00 -7.49114e+00 -2.99697e-01
       C -5.83331e-01 -8.77854e+00 -1.94392e-01
       C  2.26187e+00 -8.70531e+00 -8.58894e-02
       C  7.97379e-02 -5.06410e+00 -2.44602e-01
       C  1.58834e+00 -4.97911e+00 -2.59570e-01
       C -5.83180e-01 -6.29105e+00 -2.90027e-01
       C  2.31810e+00 -6.24498e+00 -1.22813e-01
       C  1.28528e-01 -2.47198e+00 -2.01162e-01
       C  1.54700e+00 -2.61302e+00 -1.53051e-01
       C -5.52894e-01 -3.78192e+00 -2.25773e-01
       C  2.27291e+00 -3.75245e+00 -1.05078e-01
       C  4.33270e+00 -5.47137e-02 -4.68989e-02
       C  5.88932e+00 -1.14217e-01 -1.49729e-01
       C  3.74317e+00 -1.29264e+00 -3.63672e-02
       C  6.67582e+00 -1.31717e+00 -1.45997e-01
       C  4.42639e+00 -1.74269e+01 -9.62785e-02
       C  5.85743e+00 -1.74506e+01  5.04374e-02
       C  3.68546e+00 -1.87139e+01 -1.55719e-02
       C  6.57117e+00 -1.86575e+01 -3.43771e-02
       C  4.35011e+00 -1.48540e+01 -1.16717e-01
       C  5.85412e+00 -1.49222e+01  1.26861e-01
       C  3.76264e+00 -1.61267e+01 -2.10601e-01
       C  6.61358e+00 -1.61400e+01  1.14943e-01
       C  4.38638e+00 -1.24447e+01 -6.53789e-02
       C  5.88115e+00 -1.24902e+01  7.58023e-02
       C  3.72734e+00 -1.36966e+01 -2.12459e-01
       C  6.58551e+00 -1.36997e+01  7.78894e-02
       C  8.79956e+00 -1.39307e-02  2.71816e-02
       C  1.01509e+01 -7.29039e-02  4.82870e-02
       C  8.04509e+00 -1.26821e+00 -1.69074e-01
       C  1.08718e+01 -1.34171e+00  3.58694e-02
       C  8.72619e+00 -1.73960e+01 -9.40362e-02
       C  1.01054e+01 -1.73746e+01 -1.09588e-01
       C  8.06744e+00 -1.86006e+01  8.82275e-02
       C  1.09354e+01 -1.85726e+01 -5.12096e-03
       C  8.72453e+00 -1.48983e+01  1.55059e-01
       C  1.01589e+01 -1.48878e+01  9.73901e-03
       C  8.01793e+00 -1.61443e+01 -5.58298e-02
       C  1.08318e+01 -1.61474e+01 -1.08863e-01
       C  8.60590e+00 -1.23725e+01 -6.28967e-02
       C  1.01188e+01 -1.24003e+01  8.75656e-02
       C  7.90081e+00 -1.36385e+01  1.24846e-01
       C  1.08972e+01 -1.35995e+01  1.54682e-02
       C  1.30536e+01 -4.88000e-03 -8.20857e-02
       C  1.45459e+01 -5.71297e-02 -7.05214e-02
       C  1.23286e+01 -1.25940e+00 -6.43629e-03
       C  1.51544e+01 -1.23458e+00 -1.34442e-02
       C  1.30803e+01 -1.73664e+01  4.70225e-02
       C  1.45161e+01 -1.73810e+01 -2.36503e-01
       C  1.22709e+01 -1.86195e+01  2.78200e-02
       C  1.51280e+01 -1.86315e+01 -6.27063e-02
       C  1.29595e+01 -1.48570e+01 -9.24555e-03
       C  1.44489e+01 -1.49170e+01 -7.18910e-02
       C  1.23131e+01 -1.61802e+01 -1.73603e-02
       C  1.51047e+01 -1.61841e+01 -1.07195e-01
       C  1.29605e+01 -1.24711e+01 -1.69424e-01
       C  1.43764e+01 -1.24347e+01 -9.39805e-02
       C  1.23477e+01 -1.36992e+01 -1.27054e-01
       C  1.51282e+01 -1.37044e+01 -1.21021e-01
       C  1.61262e-01 -1.29110e-03 -3.56346e-02
       C  1.56298e+00 -3.85174e-02 -4.59363e-02
       C -5.75656e-01 -1.24263e+00 -1.18707e-01
       C  2.30087e+00 -1.25186e+00 -8.29486e-02
       C  1.87312e-01 -1.73946e+01 -1.98721e-01
       C  1.66786e+00 -1.73807e+01  9.36959e-02
       C -6.13600e-01 -1.85996e+01 -1.27586e-01
       C  2.33490e+00 -1.86655e+01  4.56975e-02
       C  1.24861e-01 -1.49759e+01 -2.65004e-01
       C  1.58142e+00 -1.48990e+01 -2.50553e-01
       C -5.44508e-01 -1.61809e+01 -1.68528e-01
       C  2.31726e+00 -1.62608e+01 -9.19169e-02
       C  1.19611e-01 -1.25172e+01 -1.07561e-01
       C  1.63398e+00 -1.24819e+01 -1.60378e-01
       C -6.00051e-01 -1.36628e+01 -2.89729e-01
       C  2.31226e+00 -1.37228e+01 -1.60169e-01
       H  6.01507e+00 -1.02982e+01  5.58286e+00
       C  5.30116e+00 -9.50488e+00  4.98305e+00
       C  5.85046e+00 -8.19561e+00  5.04588e+00
       H  6.85130e+00 -7.88634e+00  5.41245e+00
       C  5.16544e+00 -7.10344e+00  4.55815e+00
       H  5.63662e+00 -6.00394e+00  4.68968e+00
       C  3.94209e+00 -7.27891e+00  3.92001e+00
       H  3.27419e+00 -6.41815e+00  3.93169e+00
       C  3.39881e+00 -8.66399e+00  3.72087e+00
       H  2.54180e+00 -8.68109e+00  3.08109e+00
       C  4.15034e+00 -9.70993e+00  4.23226e+00
       H  3.77843e+00 -1.07118e+01  3.92162e+00
