140
# CELL(abcABC):   17.14040    19.79200    30.00000    90.00000    90.00000    90.00000  Step:           0  Bead:      25 positions{angstrom}  cell{angstrom}
       C  4.42388e+00 -9.98835e+00 -8.81357e-02
       C  5.85979e+00 -1.00279e+01 -9.43672e-02
       C  3.72325e+00 -1.12114e+01  5.53447e-03
       C  6.58180e+00 -1.11888e+01 -2.75490e-01
       C  4.42331e+00 -7.48791e+00 -8.77789e-02
       C  5.85506e+00 -7.55718e+00 -2.06732e-01
       C  3.69091e+00 -8.70714e+00  3.70601e-02
       C  6.55818e+00 -8.83048e+00 -1.86640e-01
       C  4.43724e+00 -5.04606e+00 -1.30798e-01
       C  5.82244e+00 -5.04296e+00 -1.24455e-01
       C  3.73138e+00 -6.31205e+00 -7.87913e-02
       C  6.61410e+00 -6.30183e+00 -1.17837e-01
       C  4.41461e+00 -2.52513e+00 -7.78936e-02
       C  5.85176e+00 -2.53618e+00 -1.84806e-01
       C  3.70115e+00 -3.79870e+00 -2.85710e-01
       C  6.58535e+00 -3.68959e+00 -1.77466e-01
       C  8.72748e+00 -1.00052e+01 -1.37005e-01
       C  1.01430e+01 -9.91698e+00 -1.10823e-01
       C  8.01694e+00 -1.12218e+01  5.87108e-02
       C  1.09620e+01 -1.10943e+01 -6.36699e-02
       C  8.71666e+00 -7.52432e+00 -1.13860e-01
       C  1.01964e+01 -7.44666e+00 -1.33585e-01
       C  8.02686e+00 -8.73509e+00 -1.32394e-01
       C  1.08431e+01 -8.73639e+00 -2.51847e-01
       C  8.73824e+00 -4.96740e+00 -1.08230e-01
       C  1.01716e+01 -5.04067e+00 -1.42479e-01
       C  8.00271e+00 -6.24346e+00 -1.00719e-01
       C  1.08212e+01 -6.21971e+00 -2.68605e-01
       C  8.73304e+00 -2.59453e+00 -2.13726e-01
       C  1.01891e+01 -2.48559e+00 -2.96977e-01
       C  7.93219e+00 -3.77672e+00 -2.47475e-01
       C  1.08435e+01 -3.76240e+00 -3.71733e-02
       C  1.29583e+01 -9.88687e+00 -1.45382e-01
       C  1.43861e+01 -9.90242e+00 -2.04158e-01
       C  1.22798e+01 -1.10995e+01  3.83022e-02
       C  1.50898e+01 -1.11500e+01 -1.92363e-01
       C  1.30078e+01 -7.45904e+00 -4.27045e-02
       C  1.44139e+01 -7.47776e+00 -1.25327e-01
       C  1.23201e+01 -8.68470e+00 -1.27227e-01
       C  1.50924e+01 -8.63964e+00 -8.82798e-02
       C  1.30565e+01 -4.94122e+00 -7.84157e-02
       C  1.44680e+01 -5.06921e+00 -1.62805e-01
       C  1.22695e+01 -6.21680e+00 -1.61666e-01
       C  1.51651e+01 -6.24992e+00 -1.80217e-01
       C  1.29966e+01 -2.61339e+00 -5.28818e-03
       C  1.44391e+01 -2.49366e+00 -9.00267e-02
       C  1.23231e+01 -3.74212e+00 -1.36713e-01
       C  1.51066e+01 -3.79730e+00 -5.49000e-02
       C  1.15586e-01 -9.96444e+00 -2.07293e-01
       C  1.51541e+00 -1.00297e+01 -4.56125e-02
       C -5.59162e-01 -1.12715e+01 -1.68114e-01
       C  2.27707e+00 -1.12497e+01 -3.74259e-02
       C  1.70788e-01 -7.43422e+00 -1.34514e-01
       C  1.61215e+00 -7.52310e+00 -7.44284e-02
       C -6.06316e-01 -8.74070e+00 -1.55035e-01
       C  2.20637e+00 -8.76196e+00 -8.19257e-02
       C  1.71734e-01 -5.02727e+00  5.41314e-03
       C  1.63639e+00 -5.08123e+00 -5.35076e-02
       C -5.99550e-01 -6.26471e+00 -9.80820e-02
       C  2.30773e+00 -6.23841e+00 -2.32016e-02
       C  1.57857e-01 -2.50997e+00  2.06920e-02
       C  1.54440e+00 -2.50228e+00  8.05891e-02
       C -6.10890e-01 -3.73502e+00 -5.50379e-02
       C  2.27841e+00 -3.74803e+00 -1.48513e-01
       C  4.43058e+00 -1.30702e-01 -9.16387e-02
       C  5.88536e+00 -4.10337e-02  7.43932e-02
       C  3.70784e+00 -1.32114e+00 -6.50410e-02
       C  6.54378e+00 -1.28110e+00 -6.09257e-02
       C  4.39047e+00 -1.72976e+01 -3.18319e-02
       C  5.83073e+00 -1.73966e+01 -6.33785e-03
       C  3.66539e+00 -1.85674e+01 -2.31908e-01
       C  6.60080e+00 -1.86517e+01  1.49124e-01
       C  4.51178e+00 -1.48913e+01  3.06829e-02
       C  5.86589e+00 -1.49110e+01 -6.33839e-03
       C  3.75354e+00 -1.61810e+01 -1.91149e-02
       C  6.56572e+00 -1.61290e+01 -1.54805e-02
       C  4.43709e+00 -1.24121e+01 -1.15369e-01
       C  5.82339e+00 -1.23755e+01 -2.02533e-01
       C  3.75690e+00 -1.36413e+01 -6.44640e-02
       C  6.58526e+00 -1.36488e+01 -1.39511e-01
       C  8.76232e+00 -7.66099e-02  1.37085e-02
       C  1.01842e+01 -1.14173e-01 -1.09157e-01
       C  8.07194e+00 -1.27184e+00 -3.48209e-02
       C  1.07997e+01 -1.28354e+00 -1.10785e-01
       C  8.67188e+00 -1.74244e+01  3.02340e-01
       C  1.00922e+01 -1.73439e+01  2.05287e-01
       C  7.99404e+00 -1.86592e+01  2.31442e-02
       C  1.07583e+01 -1.86185e+01 -1.91895e-02
       C  8.72165e+00 -1.48752e+01  1.07440e-02
       C  1.01137e+01 -1.48413e+01 -1.89382e-02
       C  7.98887e+00 -1.61402e+01  9.89847e-02
       C  1.08530e+01 -1.61021e+01 -5.90494e-02
       C  8.76678e+00 -1.24227e+01  1.16770e-01
       C  1.01246e+01 -1.23555e+01 -6.08467e-02
       C  7.98552e+00 -1.36522e+01  2.95123e-02
       C  1.09174e+01 -1.36318e+01 -1.57949e-02
       C  1.29611e+01 -3.13187e-02 -2.01889e-01
       C  1.43919e+01  3.02836e-02  4.43718e-02
       C  1.23048e+01 -1.32872e+00  1.27551e-02
       C  1.50983e+01 -1.23245e+00 -1.00567e-01
       C  1.29693e+01 -1.74004e+01 -1.15071e-01
       C  1.43860e+01 -1.73221e+01 -3.56772e-02
       C  1.21953e+01 -1.86305e+01 -2.19301e-01
       C  1.50862e+01 -1.86390e+01  4.83534e-02
       C  1.29931e+01 -1.48632e+01 -2.09833e-01
       C  1.44388e+01 -1.48652e+01 -9.67533e-02
       C  1.22211e+01 -1.62040e+01 -2.12105e-01
       C  1.51805e+01 -1.62077e+01 -1.43206e-01
       C  1.29730e+01 -1.23836e+01  3.94534e-02
       C  1.45044e+01 -1.23903e+01 -8.80388e-02
       C  1.23744e+01 -1.36517e+01 -9.47864e-02
       C  1.50753e+01 -1.35888e+01 -1.22355e-01
       C  1.64823e-01 -6.00390e-02 -5.47569e-02
       C  1.60216e+00 -1.34512e-01  6.87925e-03
       C -6.11314e-01 -1.27231e+00  5.07246e-02
       C  2.32040e+00 -1.32515e+00 -1.05379e-01
       C  1.56157e-01 -1.73280e+01 -2.43763e-01
       C  1.53753e+00 -1.73570e+01 -1.45427e-01
       C -6.24170e-01 -1.86203e+01 -7.05835e-02
       C  2.24379e+00 -1.85913e+01 -1.90932e-01
       C  9.84680e-02 -1.49079e+01 -1.54416e-01
       C  1.54819e+00 -1.48863e+01 -1.57059e-01
       C -5.45985e-01 -1.61482e+01 -1.86277e-01
       C  2.28096e+00 -1.60756e+01 -1.93856e-01
       C  1.44851e-01 -1.24465e+01  1.40940e-03
       C  1.63266e+00 -1.24157e+01  7.56739e-02
       C -6.32597e-01 -1.36622e+01 -4.82548e-02
       C  2.24284e+00 -1.36801e+01  1.04150e-01
       H  5.86461e+00 -1.02711e+01  5.63152e+00
       C  5.48635e+00 -9.44153e+00  5.02296e+00
       C  5.77927e+00 -8.11039e+00  5.14891e+00
       H  6.95007e+00 -7.95502e+00  5.58395e+00
       C  5.07449e+00 -7.12535e+00  4.65890e+00
       H  5.27385e+00 -6.08067e+00  4.78364e+00
       C  3.97643e+00 -7.37248e+00  3.92294e+00
       H  3.35126e+00 -6.57578e+00  3.41091e+00
       C  3.75692e+00 -8.72291e+00  3.53528e+00
       H  2.98962e+00 -8.85133e+00  2.69679e+00
       C  4.51451e+00 -9.78118e+00  4.03240e+00
       H  4.11811e+00 -1.08941e+01  3.62712e+00
140
# CELL(abcABC):   17.14040    19.79200    30.00000    90.00000    90.00000    90.00000  Step:         100  Bead:      25 positions{angstrom}  cell{angstrom}
       C  4.39913e+00 -9.98242e+00 -8.75800e-02
       C  5.82845e+00 -9.90862e+00  1.03526e-03
       C  3.71938e+00 -1.11893e+01 -1.04295e-01
       C  6.44744e+00 -1.11809e+01 -8.76323e-02
       C  4.39273e+00 -7.46112e+00 -1.88193e-02
       C  5.76275e+00 -7.47782e+00 -9.55539e-02
       C  3.69852e+00 -8.74637e+00 -8.45273e-02
       C  6.59843e+00 -8.71714e+00 -7.52805e-02
       C  4.43272e+00 -5.06011e+00  4.27434e-02
       C  5.77013e+00 -5.02577e+00 -1.77572e-01
       C  3.65922e+00 -6.22007e+00 -2.23877e-02
       C  6.63220e+00 -6.24173e+00 -1.74697e-01
       C  4.51400e+00 -2.57999e+00 -4.41192e-02
       C  5.86526e+00 -2.57032e+00 -1.89317e-02
       C  3.78193e+00 -3.78452e+00 -2.73630e-02
       C  6.53102e+00 -3.75288e+00 -1.18645e-01
       C  8.72368e+00 -9.85928e+00 -7.45461e-02
       C  1.01255e+01 -9.84585e+00 -4.14245e-03
       C  7.99552e+00 -1.12068e+01 -1.16853e-01
       C  1.08564e+01 -1.10971e+01  4.60095e-02
       C  8.69179e+00 -7.42130e+00 -2.41615e-01
       C  1.01038e+01 -7.53322e+00 -1.31689e-01
       C  7.96446e+00 -8.70356e+00 -1.22250e-01
       C  1.07845e+01 -8.65792e+00 -8.14076e-02
       C  8.64575e+00 -4.90920e+00 -1.07590e-01
       C  1.01229e+01 -4.90032e+00 -9.06767e-02
       C  8.01941e+00 -6.16381e+00 -2.10203e-01
       C  1.08222e+01 -6.25038e+00 -1.36671e-01
       C  8.74064e+00 -2.50605e+00 -9.15039e-02
       C  1.01235e+01 -2.44632e+00 -1.08184e-01
       C  8.02435e+00 -3.69997e+00 -1.65211e-01
       C  1.08360e+01 -3.70412e+00 -9.55657e-02
       C  1.29442e+01 -9.91323e+00 -2.09339e-01
       C  1.43774e+01 -9.97217e+00 -1.74293e-01
       C  1.22897e+01 -1.12359e+01 -1.48657e-01
       C  1.50794e+01 -1.12052e+01 -1.58912e-01
       C  1.29533e+01 -7.47824e+00 -2.93618e-01
       C  1.44890e+01 -7.50184e+00 -4.02186e-01
       C  1.22314e+01 -8.71580e+00 -2.36492e-01
       C  1.50999e+01 -8.61798e+00 -1.34304e-01
       C  1.29425e+01 -4.95047e+00 -1.22198e-01
       C  1.44679e+01 -5.00519e+00 -9.35679e-03
       C  1.22146e+01 -6.20101e+00 -1.93485e-01
       C  1.51226e+01 -6.31938e+00 -2.07719e-01
       C  1.30774e+01 -2.50425e+00 -4.92278e-02
       C  1.44984e+01 -2.50164e+00 -2.41121e-02
       C  1.23125e+01 -3.75556e+00 -1.14382e-01
       C  1.51817e+01 -3.79965e+00 -2.16018e-02
       C  1.02957e-01 -9.93054e+00 -6.01653e-02
       C  1.59194e+00 -1.00012e+01 -1.31193e-01
       C -6.39687e-01 -1.12057e+01 -8.94204e-02
       C  2.31503e+00 -1.12254e+01 -2.41263e-01
       C  7.42198e-02 -7.50119e+00 -2.72367e-01
       C  1.53189e+00 -7.49199e+00 -3.05262e-01
       C -5.41919e-01 -8.76420e+00 -1.20909e-01
       C  2.29937e+00 -8.75959e+00 -7.31202e-02
       C  1.27034e-01 -4.99723e+00 -2.11297e-01
       C  1.60894e+00 -5.02698e+00 -1.87937e-01
       C -5.90528e-01 -6.25342e+00 -3.13356e-01
       C  2.27586e+00 -6.19789e+00 -1.05653e-01
       C  1.54709e-01 -2.48878e+00 -1.79603e-01
       C  1.51031e+00 -2.54725e+00 -1.60378e-01
       C -5.46174e-01 -3.83369e+00 -1.82516e-01
       C  2.26916e+00 -3.72785e+00 -5.04676e-02
       C  4.38462e+00 -7.22532e-02 -6.75758e-02
       C  5.86104e+00 -6.91153e-02 -1.75535e-01
       C  3.72916e+00 -1.26073e+00 -7.12645e-02
       C  6.64910e+00 -1.27172e+00 -1.42717e-01
       C  4.46955e+00 -1.74564e+01 -6.94863e-02
       C  5.85372e+00 -1.74432e+01  1.72944e-02
       C  3.69352e+00 -1.86708e+01  4.13501e-02
       C  6.55736e+00 -1.86175e+01 -2.95558e-02
       C  4.41596e+00 -1.48569e+01 -3.71494e-02
       C  5.88464e+00 -1.49371e+01  9.98444e-02
       C  3.77516e+00 -1.61651e+01 -1.54290e-01
       C  6.55622e+00 -1.62108e+01  1.12643e-01
       C  4.40613e+00 -1.24429e+01 -2.98413e-02
       C  5.92429e+00 -1.24741e+01  8.30524e-02
       C  3.69905e+00 -1.36916e+01 -1.63234e-01
       C  6.50206e+00 -1.36698e+01  1.00503e-01
       C  8.76729e+00 -1.70029e-02  3.21523e-02
       C  1.01860e+01 -7.35959e-02 -5.76243e-03
       C  8.05675e+00 -1.26604e+00 -1.75683e-01
       C  1.08783e+01 -1.31331e+00  7.39587e-02
       C  8.70069e+00 -1.73432e+01 -1.17132e-01
       C  1.01098e+01 -1.73858e+01 -1.16260e-01
       C  8.08806e+00 -1.85951e+01  9.03152e-02
       C  1.09242e+01 -1.85502e+01  6.74864e-03
       C  8.69315e+00 -1.48477e+01  1.38872e-01
       C  1.01405e+01 -1.49193e+01 -2.16529e-02
       C  8.04828e+00 -1.61451e+01 -5.05086e-03
       C  1.08535e+01 -1.61459e+01 -8.14646e-02
       C  8.59730e+00 -1.23826e+01 -1.02583e-01
       C  1.01570e+01 -1.24223e+01  5.31392e-02
       C  7.90881e+00 -1.36045e+01  9.87418e-02
       C  1.09290e+01 -1.36265e+01  2.54640e-02
       C  1.30596e+01  3.23365e-02 -8.93090e-02
       C  1.44703e+01 -6.29647e-02 -7.71871e-02
       C  1.23010e+01 -1.28465e+00 -1.08001e-01
       C  1.51633e+01 -1.25258e+00  6.03368e-03
       C  1.30972e+01 -1.73912e+01  4.40361e-02
       C  1.44763e+01 -1.73409e+01 -2.27387e-01
       C  1.23510e+01 -1.86102e+01  3.04648e-02
       C  1.51448e+01 -1.86405e+01 -7.43641e-02
       C  1.29665e+01 -1.49294e+01 -4.02865e-02
       C  1.44006e+01 -1.49563e+01 -1.05116e-01
       C  1.23115e+01 -1.62104e+01 -1.54000e-02
       C  1.51514e+01 -1.61835e+01 -1.26484e-01
       C  1.29554e+01 -1.24501e+01 -1.57755e-01
       C  1.44345e+01 -1.24582e+01 -1.04366e-01
       C  1.23722e+01 -1.37020e+01 -1.19321e-01
       C  1.51208e+01 -1.36866e+01 -7.04099e-02
       C  1.75143e-01 -4.30595e-02 -8.46403e-02
       C  1.56793e+00 -1.16552e-01 -1.61327e-02
       C -5.71999e-01 -1.25295e+00 -1.10777e-01
       C  2.34346e+00 -1.25627e+00 -7.97593e-02
       C  1.99320e-01 -1.74149e+01 -1.80201e-01
       C  1.62895e+00 -1.73726e+01  8.49847e-02
       C -5.69876e-01 -1.85462e+01 -7.16106e-02
       C  2.36010e+00 -1.85877e+01  4.75916e-03
       C  2.23215e-01 -1.49552e+01 -2.69733e-01
       C  1.54309e+00 -1.49053e+01 -1.94878e-01
       C -5.66907e-01 -1.61244e+01 -1.13394e-01
       C  2.29760e+00 -1.62381e+01 -6.97807e-02
       C  1.90367e-01 -1.25130e+01 -1.15021e-01
       C  1.63940e+00 -1.24607e+01 -1.81497e-01
       C -6.09742e-01 -1.36957e+01 -2.73701e-01
       C  2.36733e+00 -1.37385e+01 -1.36727e-01
       H  6.05729e+00 -1.02255e+01  5.56690e+00
       C  5.30205e+00 -9.52686e+00  4.96767e+00
       C  5.84411e+00 -8.16036e+00  5.04955e+00
       H  6.67682e+00 -7.96383e+00  5.43153e+00
       C  5.16771e+00 -7.05889e+00  4.53175e+00
       H  5.64128e+00 -6.05643e+00  4.51124e+00
       C  3.86725e+00 -7.31694e+00  3.99041e+00
       H  3.10216e+00 -6.29448e+00  3.95608e+00
       C  3.45508e+00 -8.65347e+00  3.73831e+00
       H  2.52519e+00 -8.78858e+00  3.28615e+00
       C  4.17696e+00 -9.70871e+00  4.19664e+00
       H  3.75387e+00 -1.07888e+01  4.09797e+00
