140
# CELL(abcABC):   17.14040    19.79200    30.00000    90.00000    90.00000    90.00000  Step:           0  Bead:      19 positions{angstrom}  cell{angstrom}
       C  4.46431e+00 -9.96253e+00 -1.25492e-01
       C  5.85012e+00 -1.00243e+01 -1.61409e-01
       C  3.72494e+00 -1.12680e+01 -8.69431e-02
       C  6.61301e+00 -1.11733e+01 -2.09563e-01
       C  4.39093e+00 -7.49312e+00 -8.39188e-02
       C  5.86687e+00 -7.55082e+00 -2.46211e-01
       C  3.66246e+00 -8.69763e+00 -4.22452e-03
       C  6.57707e+00 -8.73630e+00 -1.85423e-01
       C  4.42958e+00 -4.97720e+00 -1.24820e-01
       C  5.82693e+00 -5.01242e+00 -1.51502e-01
       C  3.70259e+00 -6.25543e+00 -1.60174e-01
       C  6.58517e+00 -6.32009e+00 -1.81189e-01
       C  4.44571e+00 -2.52090e+00 -1.57250e-01
       C  5.90252e+00 -2.52516e+00 -2.23737e-01
       C  3.69095e+00 -3.76180e+00 -2.43165e-01
       C  6.58841e+00 -3.75331e+00 -2.11136e-01
       C  8.70568e+00 -1.00055e+01 -1.27934e-01
       C  1.01483e+01 -9.92737e+00 -1.50192e-01
       C  8.09952e+00 -1.12450e+01 -2.93821e-03
       C  1.08773e+01 -1.11751e+01 -1.02925e-01
       C  8.78233e+00 -7.54406e+00 -1.48723e-01
       C  1.02155e+01 -7.43244e+00 -1.24570e-01
       C  8.00738e+00 -8.71991e+00 -1.72831e-01
       C  1.09259e+01 -8.75147e+00 -2.81936e-01
       C  8.71308e+00 -4.96911e+00 -8.40580e-02
       C  1.01246e+01 -5.01039e+00 -1.81900e-01
       C  8.01811e+00 -6.28563e+00 -1.81573e-01
       C  1.07984e+01 -6.22127e+00 -2.44142e-01
       C  8.74882e+00 -2.58507e+00 -2.15579e-01
       C  1.01555e+01 -2.50003e+00 -2.76768e-01
       C  7.99974e+00 -3.72785e+00 -3.11358e-01
       C  1.08538e+01 -3.76846e+00 -2.11220e-02
       C  1.29254e+01 -9.92043e+00 -9.32562e-02
       C  1.43994e+01 -9.86810e+00 -1.47474e-01
       C  1.22394e+01 -1.11182e+01  1.53914e-02
       C  1.51786e+01 -1.11362e+01 -1.76290e-01
       C  1.30365e+01 -7.49229e+00 -3.15221e-02
       C  1.44104e+01 -7.37229e+00 -1.42061e-01
       C  1.23149e+01 -8.67512e+00 -1.57790e-01
       C  1.51046e+01 -8.63708e+00 -1.93908e-01
       C  1.29878e+01 -4.90321e+00 -1.12080e-01
       C  1.43852e+01 -4.94900e+00 -1.81782e-01
       C  1.22726e+01 -6.23427e+00 -1.36700e-01
       C  1.52124e+01 -6.26459e+00 -1.92597e-01
       C  1.30009e+01 -2.52592e+00  9.86134e-03
       C  1.44072e+01 -2.46501e+00 -8.60011e-02
       C  1.23384e+01 -3.74158e+00 -1.68489e-01
       C  1.50829e+01 -3.75996e+00 -1.31000e-01
       C  1.09027e-01 -9.97611e+00 -1.86207e-01
       C  1.56873e+00 -1.00184e+01  1.76307e-02
       C -5.98522e-01 -1.12405e+01 -2.12168e-01
       C  2.32824e+00 -1.13287e+01 -7.96211e-03
       C  2.11672e-01 -7.45439e+00 -9.19712e-02
       C  1.58332e+00 -7.55623e+00 -1.03613e-01
       C -6.72486e-01 -8.69961e+00 -1.66431e-01
       C  2.20301e+00 -8.82310e+00 -7.70315e-02
       C  8.14602e-02 -4.94980e+00 -1.34221e-01
       C  1.60401e+00 -5.06087e+00 -6.99585e-02
       C -5.81412e-01 -6.24789e+00 -1.75114e-01
       C  2.26098e+00 -6.29281e+00  2.82249e-03
       C  7.02481e-02 -2.58187e+00  6.30117e-02
       C  1.54944e+00 -2.51244e+00  2.05952e-02
       C -5.12373e-01 -3.73000e+00 -5.25301e-02
       C  2.25764e+00 -3.75457e+00 -1.23031e-01
       C  4.37904e+00 -1.05556e-01  8.54976e-04
       C  5.89095e+00 -3.73543e-02  1.49976e-02
       C  3.69530e+00 -1.35173e+00 -7.85942e-02
       C  6.55925e+00 -1.30149e+00 -3.39866e-02
       C  4.41523e+00 -1.72749e+01 -6.44696e-02
       C  5.86986e+00 -1.74436e+01 -3.68906e-02
       C  3.74890e+00 -1.86179e+01 -1.18553e-01
       C  6.44979e+00 -1.86423e+01  1.53279e-01
       C  4.39949e+00 -1.48999e+01 -3.08287e-02
       C  5.85351e+00 -1.48974e+01 -2.39202e-02
       C  3.70290e+00 -1.61967e+01 -2.98162e-02
       C  6.61649e+00 -1.61269e+01  4.25812e-02
       C  4.47513e+00 -1.24002e+01 -8.03831e-02
       C  5.81655e+00 -1.23500e+01 -1.47104e-01
       C  3.70849e+00 -1.36962e+01 -4.79513e-02
       C  6.59302e+00 -1.37012e+01 -1.10457e-01
       C  8.75235e+00 -9.34865e-03 -4.94383e-02
       C  1.01322e+01 -6.66228e-02 -9.95195e-02
       C  8.09713e+00 -1.30181e+00  1.12741e-02
       C  1.08325e+01 -1.32725e+00 -1.46530e-01
       C  8.69831e+00 -1.73988e+01  2.25673e-01
       C  1.01380e+01 -1.73422e+01  2.52004e-01
       C  7.96280e+00 -1.86400e+01 -5.41120e-03
       C  1.08204e+01 -1.86304e+01 -7.23595e-02
       C  8.73781e+00 -1.48529e+01 -1.58958e-02
       C  1.01193e+01 -1.48367e+01 -1.22111e-02
       C  7.94817e+00 -1.61259e+01  1.42686e-01
       C  1.08975e+01 -1.60592e+01 -1.44091e-02
       C  8.77750e+00 -1.24126e+01  7.59422e-02
       C  1.01674e+01 -1.24207e+01 -5.83646e-02
       C  8.01250e+00 -1.36661e+01  2.40414e-02
       C  1.09578e+01 -1.36048e+01 -3.20243e-02
       C  1.29509e+01 -1.36526e-02 -2.04002e-01
       C  1.42878e+01 -8.63123e-02 -3.59035e-02
       C  1.22406e+01 -1.28882e+00  2.91832e-02
       C  1.51459e+01 -1.20995e+00 -5.60700e-02
       C  1.30047e+01 -1.74056e+01 -7.78391e-02
       C  1.43633e+01 -1.73220e+01 -3.64391e-02
       C  1.22328e+01 -1.85607e+01 -1.33898e-01
       C  1.51123e+01 -1.85258e+01  3.16136e-02
       C  1.29820e+01 -1.49072e+01 -1.67392e-01
       C  1.44549e+01 -1.48935e+01 -1.50468e-01
       C  1.22380e+01 -1.61056e+01 -1.72185e-01
       C  1.51546e+01 -1.61548e+01 -2.04593e-01
       C  1.30019e+01 -1.24362e+01 -2.77966e-02
       C  1.44794e+01 -1.23231e+01 -1.13186e-01
       C  1.23171e+01 -1.36272e+01 -2.97478e-02
       C  1.50846e+01 -1.36390e+01 -7.88464e-02
       C  1.25336e-01 -5.20825e-02  1.20854e-02
       C  1.54461e+00 -7.99294e-02 -2.98590e-02
       C -5.77650e-01 -1.29391e+00  2.59890e-02
       C  2.23405e+00 -1.33293e+00 -2.62989e-02
       C  2.21571e-01 -1.73406e+01 -2.39071e-01
       C  1.57187e+00 -1.73391e+01 -1.70312e-01
       C -5.57987e-01 -1.86300e+01 -5.60153e-02
       C  2.27385e+00 -1.86283e+01 -1.97265e-01
       C  1.16140e-01 -1.48781e+01 -1.60597e-01
       C  1.51656e+00 -1.48673e+01 -1.75242e-01
       C -5.36661e-01 -1.61463e+01 -2.35690e-01
       C  2.23630e+00 -1.60796e+01 -1.51972e-01
       C  7.91354e-02 -1.24551e+01 -6.62504e-02
       C  1.60180e+00 -1.24849e+01  3.13554e-02
       C -5.94674e-01 -1.36767e+01 -6.09528e-02
       C  2.25941e+00 -1.36510e+01  8.32479e-02
       H  5.86972e+00 -1.03390e+01  5.60300e+00
       C  5.40091e+00 -9.43601e+00  4.95600e+00
       C  5.86415e+00 -8.12878e+00  5.20594e+00
       H  6.76508e+00 -7.70507e+00  5.76929e+00
       C  5.04192e+00 -7.15501e+00  4.63107e+00
       H  5.18954e+00 -6.08085e+00  4.91776e+00
       C  3.98613e+00 -7.48097e+00  3.88448e+00
       H  3.27953e+00 -6.58080e+00  3.56244e+00
       C  3.75056e+00 -8.77131e+00  3.53388e+00
       H  3.04167e+00 -8.93617e+00  2.82583e+00
       C  4.47567e+00 -9.83941e+00  3.99285e+00
       H  4.13988e+00 -1.08314e+01  3.80085e+00
140
# CELL(abcABC):   17.14040    19.79200    30.00000    90.00000    90.00000    90.00000  Step:         100  Bead:      19 positions{angstrom}  cell{angstrom}
       C  4.42256e+00 -9.95522e+00 -2.17712e-02
       C  5.80310e+00 -9.92726e+00 -5.21492e-02
       C  3.66210e+00 -1.12459e+01 -1.16805e-01
       C  6.48427e+00 -1.11738e+01 -3.69545e-03
       C  4.38939e+00 -7.43360e+00  3.59308e-02
       C  5.84783e+00 -7.55666e+00 -1.40498e-01
       C  3.63764e+00 -8.75088e+00 -1.12987e-01
       C  6.52970e+00 -8.73298e+00 -1.18276e-01
       C  4.43736e+00 -5.02323e+00  3.81522e-02
       C  5.82078e+00 -5.06845e+00 -1.83957e-01
       C  3.71476e+00 -6.20692e+00 -3.97946e-02
       C  6.64818e+00 -6.22703e+00 -1.57503e-01
       C  4.45610e+00 -2.54675e+00 -1.05654e-01
       C  5.90393e+00 -2.56231e+00 -4.08374e-02
       C  3.66796e+00 -3.79920e+00 -1.03452e-02
       C  6.55728e+00 -3.78140e+00 -1.05566e-01
       C  8.67299e+00 -9.88275e+00 -1.57338e-01
       C  1.00572e+01 -9.91524e+00 -3.05007e-02
       C  7.96177e+00 -1.11096e+01 -7.57805e-02
       C  1.08607e+01 -1.11359e+01  8.77550e-02
       C  8.71052e+00 -7.45837e+00 -2.93095e-01
       C  1.01141e+01 -7.51200e+00 -1.35741e-01
       C  7.98526e+00 -8.74389e+00 -1.59841e-01
       C  1.08188e+01 -8.65039e+00 -1.60048e-01
       C  8.65146e+00 -4.94744e+00 -1.23964e-01
       C  1.01500e+01 -4.92933e+00 -1.05340e-01
       C  8.01978e+00 -6.19124e+00 -3.08437e-01
       C  1.08828e+01 -6.22042e+00 -1.28198e-01
       C  8.70056e+00 -2.47924e+00 -1.04340e-02
       C  1.01844e+01 -2.40485e+00 -8.05882e-02
       C  8.05528e+00 -3.72830e+00 -1.83542e-01
       C  1.08282e+01 -3.67915e+00 -8.89909e-02
       C  1.29318e+01 -9.89649e+00 -1.43478e-01
       C  1.43988e+01 -9.93369e+00 -2.57057e-01
       C  1.22811e+01 -1.11848e+01 -1.84612e-01
       C  1.50967e+01 -1.11851e+01 -1.29401e-01
       C  1.29737e+01 -7.54511e+00 -3.38081e-01
       C  1.45091e+01 -7.51639e+00 -3.76217e-01
       C  1.22617e+01 -8.73303e+00 -2.69340e-01
       C  1.51514e+01 -8.68456e+00 -1.89379e-01
       C  1.30373e+01 -4.98919e+00 -8.79056e-02
       C  1.44607e+01 -5.08479e+00 -7.94936e-02
       C  1.22616e+01 -6.26090e+00 -1.76325e-01
       C  1.51362e+01 -6.30114e+00 -2.47815e-01
       C  1.30341e+01 -2.47456e+00 -6.13826e-02
       C  1.44012e+01 -2.51453e+00  2.70507e-02
       C  1.23310e+01 -3.68179e+00 -1.21789e-01
       C  1.51341e+01 -3.77314e+00 -6.80435e-02
       C  9.44203e-02 -9.93954e+00 -3.18034e-02
       C  1.56404e+00 -9.98551e+00 -6.12886e-02
       C -5.89517e-01 -1.12692e+01 -5.91691e-02
       C  2.31635e+00 -1.11856e+01 -2.49121e-01
       C  1.04028e-01 -7.50375e+00 -2.17477e-01
       C  1.52642e+00 -7.48071e+00 -2.49530e-01
       C -6.07436e-01 -8.76560e+00 -1.25932e-01
       C  2.30312e+00 -8.75957e+00 -5.90337e-02
       C  2.24770e-01 -4.97095e+00 -2.42667e-01
       C  1.54357e+00 -4.99789e+00 -1.51957e-01
       C -5.98824e-01 -6.24946e+00 -3.19329e-01
       C  2.27550e+00 -6.17919e+00 -1.07187e-01
       C  1.08803e-01 -2.48674e+00 -1.49087e-01
       C  1.54092e+00 -2.54857e+00 -4.87431e-02
       C -5.82112e-01 -3.72604e+00 -1.99884e-01
       C  2.28116e+00 -3.80589e+00 -5.37630e-02
       C  4.39162e+00 -1.13653e-01 -4.38240e-02
       C  5.79947e+00 -4.99094e-02 -1.64060e-01
       C  3.67899e+00 -1.33276e+00 -9.61127e-02
       C  6.58085e+00 -1.32049e+00 -1.38419e-01
       C  4.41509e+00 -1.74900e+01 -1.36613e-01
       C  5.93183e+00 -1.74515e+01  1.30711e-02
       C  3.74189e+00 -1.86541e+01 -2.60640e-02
       C  6.58538e+00 -1.86041e+01 -3.64570e-02
       C  4.45939e+00 -1.49942e+01 -6.39841e-02
       C  5.82814e+00 -1.48934e+01  1.27365e-01
       C  3.75653e+00 -1.61267e+01 -1.56552e-01
       C  6.52740e+00 -1.61619e+01  9.60236e-02
       C  4.32529e+00 -1.24470e+01  6.67793e-04
       C  5.88892e+00 -1.24036e+01  4.00939e-02
       C  3.73900e+00 -1.37432e+01 -1.49212e-01
       C  6.50814e+00 -1.36901e+01  9.07451e-02
       C  8.71996e+00 -4.60275e-02  4.65484e-02
       C  1.02694e+01 -5.37788e-02  1.75870e-02
       C  8.05798e+00 -1.24690e+00 -1.53763e-01
       C  1.08735e+01 -1.27656e+00  5.72020e-03
       C  8.68571e+00 -1.73403e+01 -7.19177e-02
       C  1.02331e+01 -1.73901e+01 -1.96874e-01
       C  8.10711e+00 -1.86307e+01  4.33002e-02
       C  1.09012e+01 -1.86306e+01  7.83547e-03
       C  8.68102e+00 -1.48718e+01  1.09080e-01
       C  1.01862e+01 -1.49195e+01  8.75295e-02
       C  8.03111e+00 -1.61395e+01  2.89529e-03
       C  1.08319e+01 -1.61436e+01 -9.82205e-02
       C  8.63917e+00 -1.23809e+01 -1.00315e-01
       C  1.01187e+01 -1.24144e+01  3.20580e-02
       C  7.95040e+00 -1.36036e+01  1.09990e-01
       C  1.08938e+01 -1.36350e+01 -9.93524e-03
       C  1.30991e+01  2.47726e-02 -9.12739e-02
       C  1.43629e+01 -4.05380e-02 -2.89184e-02
       C  1.23285e+01 -1.25019e+00 -1.51063e-01
       C  1.51381e+01 -1.30472e+00  1.61455e-02
       C  1.30689e+01 -1.73774e+01 -1.61570e-02
       C  1.44267e+01 -1.73079e+01 -2.03360e-01
       C  1.23019e+01 -1.85914e+01  2.17307e-02
       C  1.51608e+01 -1.86202e+01 -8.85039e-02
       C  1.29979e+01 -1.50135e+01 -1.60420e-02
       C  1.43812e+01 -1.49337e+01 -8.42091e-02
       C  1.22584e+01 -1.61813e+01  1.99403e-02
       C  1.51423e+01 -1.60843e+01 -9.11680e-02
       C  1.29818e+01 -1.24575e+01 -1.33287e-01
       C  1.43988e+01 -1.24594e+01 -1.06990e-01
       C  1.23333e+01 -1.36756e+01 -1.11157e-01
       C  1.51233e+01 -1.36501e+01 -8.94654e-02
       C  1.51739e-01 -2.87298e-03 -4.93594e-02
       C  1.60954e+00 -1.60061e-01  1.49257e-02
       C -5.39100e-01 -1.28062e+00 -9.79508e-02
       C  2.29950e+00 -1.30979e+00 -1.09038e-01
       C  1.66338e-01 -1.73594e+01 -2.12512e-01
       C  1.62320e+00 -1.73919e+01  8.94906e-02
       C -5.49990e-01 -1.85663e+01 -7.05329e-02
       C  2.31242e+00 -1.85785e+01  1.97854e-03
       C  2.04078e-01 -1.49030e+01 -2.90112e-01
       C  1.59809e+00 -1.49654e+01 -1.64166e-01
       C -5.28951e-01 -1.60680e+01 -1.03807e-01
       C  2.27448e+00 -1.62313e+01 -1.66052e-01
       C  1.94118e-01 -1.24216e+01 -1.54680e-01
       C  1.59383e+00 -1.24568e+01 -1.12557e-01
       C -5.15315e-01 -1.37180e+01 -1.97215e-01
       C  2.28382e+00 -1.37703e+01 -1.05159e-01
       H  5.82396e+00 -1.03745e+01  5.42516e+00
       C  5.30007e+00 -9.48573e+00  4.96524e+00
       C  5.86962e+00 -8.16937e+00  5.04292e+00
       H  6.81221e+00 -7.84996e+00  5.49522e+00
       C  5.15723e+00 -7.12196e+00  4.47296e+00
       H  5.59612e+00 -6.11004e+00  4.45062e+00
       C  3.86148e+00 -7.35654e+00  4.01805e+00
       H  3.29342e+00 -6.45709e+00  3.98895e+00
       C  3.51024e+00 -8.59296e+00  3.75387e+00
       H  2.49065e+00 -8.71485e+00  3.29241e+00
       C  4.15936e+00 -9.75550e+00  4.18354e+00
       H  4.00589e+00 -1.07811e+01  4.17579e+00
