140
# CELL(abcABC):   32.39066    37.40146    56.69178    90.00000    90.00000    90.00000  Step:           0  Bead:       0 v_centroid{atomic_unit}  cell{atomic_unit}
       C  1.00393e-04 -4.27870e-04 -2.10599e-04
       C  8.80566e-05 -4.37136e-04  8.20689e-05
       C -1.50085e-04 -4.92479e-05 -1.93444e-04
       C -2.01424e-04 -4.10512e-04  3.82093e-05
       C  1.91888e-05  8.32314e-05  2.36267e-04
       C  3.50855e-04  1.92539e-04  3.27704e-06
       C  1.16976e-05 -1.56869e-04  2.45561e-04
       C -1.57973e-04 -8.79232e-05 -8.38837e-05
       C -1.67227e-04  1.81397e-04 -3.29364e-05
       C -3.08807e-04 -3.70059e-04  2.12959e-04
       C -1.55579e-04 -1.51368e-04  3.10541e-04
       C  1.92439e-05 -2.03497e-04 -4.64097e-04
       C  3.65346e-04 -1.36770e-04  3.30802e-04
       C  2.31789e-04  7.10918e-05  4.34272e-07
       C  1.12060e-04  2.35690e-04  3.31431e-04
       C -5.38262e-05 -6.52237e-06  4.61008e-06
       C  4.00420e-04  1.61683e-05 -2.08599e-04
       C  3.07424e-04 -1.19459e-04  1.86755e-04
       C -1.94160e-04  3.58214e-04  8.26337e-06
       C  2.45138e-04  8.78479e-05 -1.42899e-04
       C -3.37604e-04  3.76095e-06  2.42569e-04
       C -9.65820e-05  3.43190e-04  2.88651e-04
       C -2.07144e-04  9.46531e-06 -1.55636e-04
       C  1.28889e-04 -7.81485e-05  1.51994e-04
       C -3.39622e-05 -1.73671e-04  6.19110e-05
       C  1.81879e-04  2.30547e-04 -4.49401e-05
       C  3.06283e-04  6.19880e-04 -3.43296e-04
       C  8.17516e-06  1.18328e-04 -2.16424e-04
       C  1.03031e-04 -8.08276e-05 -2.57029e-04
       C  2.39611e-04  4.74810e-04  2.68646e-04
       C -4.04803e-04  6.98622e-05  9.45511e-05
       C  2.12734e-04 -1.58258e-04  2.15582e-04
       C -1.14593e-04 -7.04800e-06 -2.08316e-04
       C -6.82819e-05  1.50810e-04  1.91042e-04
       C -4.31849e-04  2.04560e-04  5.48187e-06
       C -6.31750e-05  3.57059e-04  1.40118e-05
       C -2.77262e-04 -1.20941e-04 -3.27918e-04
       C -5.68941e-05  4.07695e-04  1.11716e-04
       C -3.30873e-05 -1.08027e-04  8.47512e-05
       C -6.26704e-05 -2.29051e-04 -4.30057e-04
       C  1.15585e-04  3.64362e-04 -4.57695e-05
       C -1.17826e-04  2.45852e-04  4.02161e-05
       C -2.72597e-04 -1.06454e-04  5.18616e-05
       C -4.95998e-04  2.17837e-05 -1.52461e-04
       C -9.42594e-05  1.12064e-04 -1.99456e-04
       C -3.70344e-05  1.28073e-04  3.74350e-04
       C -4.79476e-05 -8.40148e-05  1.16616e-04
       C  3.26207e-04 -9.91190e-05  1.26376e-04
       C -2.62146e-04 -4.47932e-04 -4.87187e-05
       C  6.51610e-05  5.34537e-05  1.06752e-04
       C  1.76758e-04 -2.87606e-04  1.30288e-04
       C  6.94260e-04 -9.96039e-05  5.51451e-05
       C  3.30146e-04  3.08729e-04 -2.76778e-04
       C -1.83680e-04  1.25633e-04  6.79020e-05
       C  2.79885e-04  3.47012e-06  4.63356e-05
       C -2.31685e-04  1.74877e-04 -1.62930e-05
       C -3.64809e-04  2.74709e-04 -2.11845e-04
       C  2.54714e-05 -2.80475e-04 -1.23220e-05
       C  2.47390e-04 -1.97977e-04 -3.49316e-04
       C -1.59266e-04 -6.88564e-05 -4.96716e-04
       C  1.00945e-04 -1.58324e-04 -1.73995e-04
       C  1.76450e-04  1.46155e-04  4.41365e-05
       C -3.34825e-04 -1.52621e-04 -2.97553e-04
       C -2.46147e-04 -1.03716e-05  9.11375e-05
       C  1.63473e-04  1.03422e-04 -1.61168e-04
       C -2.16465e-04  9.63238e-05  1.89245e-04
       C -8.62802e-07  5.74128e-05  1.30319e-05
       C  3.02597e-05 -7.28608e-05 -1.46282e-04
       C -3.96495e-04  2.63098e-04 -1.14730e-04
       C -1.03271e-04  3.88528e-05 -1.18427e-04
       C  3.61805e-04 -4.64014e-05 -2.09480e-04
       C -3.16492e-04  4.04216e-04  7.97986e-05
       C -2.82579e-05 -5.32290e-05  4.43940e-05
       C -7.41660e-05 -2.32792e-04 -7.42389e-05
       C  9.77587e-05  1.61997e-04  1.41585e-05
       C  2.29872e-04 -2.38213e-05 -6.39672e-05
       C -1.34996e-04  3.83618e-04 -3.00014e-04
       C  6.30408e-05 -2.90052e-04 -8.32827e-05
       C  3.33975e-04 -8.14601e-05 -1.02049e-04
       C -1.24104e-04  1.02887e-04  1.69869e-04
       C -1.29421e-04 -3.11081e-04  1.30201e-04
       C  1.74252e-04  2.70719e-04  2.45137e-04
       C  1.48548e-04 -1.47778e-04  6.30707e-05
       C  1.17354e-04 -1.31790e-04  1.42481e-05
       C -7.21864e-05 -1.17446e-04  2.59385e-04
       C  2.17715e-04 -1.63790e-04 -5.45759e-06
       C  5.10434e-04 -2.58880e-04  8.29525e-05
       C -4.31826e-05  1.55385e-04 -3.33585e-05
       C -1.62353e-04 -2.98966e-04 -7.53983e-05
       C  8.29040e-05  1.67564e-04 -3.10785e-04
       C  1.36769e-05  1.93090e-04  1.82783e-04
       C  1.02111e-04  1.58587e-04  7.72508e-05
       C -8.68193e-05 -1.24691e-04  4.29840e-04
       C  2.63713e-04 -9.99020e-05  3.21726e-05
       C -2.41551e-05 -2.25999e-04 -1.22099e-04
       C -1.52265e-04 -9.34154e-05  2.01143e-04
       C  1.06356e-04 -5.56985e-04  1.07130e-04
       C  2.88294e-05 -4.87574e-04 -1.80469e-04
       C  3.13906e-05  1.89015e-04 -6.92566e-05
       C  9.99803e-05 -1.69684e-04  1.58520e-05
       C -5.66553e-05  7.96405e-05  2.47392e-05
       C  1.01951e-04 -8.71482e-05  1.20750e-04
       C  2.77085e-04  6.53967e-04  7.31591e-05
       C  5.96551e-05  8.26853e-05 -5.18318e-05
       C  1.05414e-04  3.85736e-04  2.08530e-04
       C -7.40457e-05 -2.83423e-04 -1.08979e-04
       C -9.14690e-05  2.17444e-04  7.69400e-06
       C -2.70608e-04  1.87987e-04 -1.64717e-04
       C -1.30455e-04  3.22495e-05  2.31626e-04
       C  1.56691e-04  4.63366e-05  3.50826e-06
       C  3.06507e-06 -3.35351e-05  1.74422e-04
       C -3.25415e-04 -1.24801e-04 -6.11417e-06
       C -1.01265e-04 -5.63989e-05  7.80047e-05
       C  2.99932e-05 -2.45132e-04  3.36002e-04
       C -3.44124e-04 -4.41783e-05  1.73553e-04
       C -1.45827e-04 -1.70784e-04 -1.46730e-04
       C -8.44277e-05 -1.68900e-04  2.38086e-04
       C  1.40136e-04  7.90134e-05 -1.21633e-04
       C  1.83066e-04 -1.62334e-04 -1.18676e-05
       C  1.88442e-04 -8.33444e-05  2.77724e-04
       C  1.16492e-05 -6.89210e-05 -5.13082e-05
       C -3.44464e-04 -9.13614e-05 -2.53767e-04
       C -3.52446e-05  1.42949e-04 -4.26273e-04
       C  2.55547e-04 -5.38284e-04 -1.72972e-04
       C  1.20319e-04 -1.61934e-04 -7.39494e-05
       C  3.04495e-04  6.91275e-05  2.35116e-05
       C -1.06087e-04  2.49225e-04  8.97723e-05
       C -4.66398e-04  2.55595e-04 -1.68897e-04
       H  7.57455e-05 -5.40338e-04  7.15347e-04
       C -2.94163e-04 -1.37503e-04 -1.02702e-04
       C  1.94107e-04 -5.26949e-05 -1.82354e-04
       H  4.76973e-04  5.24164e-04 -1.15578e-03
       C  2.82798e-04  1.72581e-04  3.35806e-04
       H  1.02077e-04  2.89094e-04 -7.51549e-04
       C -1.67785e-04  1.71975e-04 -2.52040e-06
       H  6.44007e-04  1.02528e-03  1.61355e-03
       C -1.08479e-04 -3.08019e-04  1.62830e-04
       H -3.55110e-05  5.99921e-04 -3.53935e-04
       C -8.79530e-05  3.48858e-04 -1.38427e-04
       H  6.81798e-04  6.87513e-04  7.92947e-04
140
# CELL(abcABC):   32.39066    37.40146    56.69178    90.00000    90.00000    90.00000  Step:         100  Bead:       0 v_centroid{atomic_unit}  cell{atomic_unit}
       C -1.26352e-04  2.06943e-05 -5.32341e-05
       C  1.21283e-04 -2.74358e-05  2.46459e-04
       C -4.31897e-04  1.22641e-04 -3.10326e-05
       C  2.15499e-04  7.86380e-05 -8.27593e-05
       C -1.87400e-04  1.92929e-04 -1.76427e-04
       C -9.90407e-05 -1.59868e-04  4.03261e-05
       C -1.39934e-04  4.12884e-04 -1.94761e-04
       C  1.28216e-04 -1.18093e-04 -1.79594e-05
       C -9.89216e-05 -1.13152e-04 -9.06156e-05
       C -4.80746e-05  8.18817e-05  4.28042e-04
       C -2.02452e-04 -6.98843e-05 -1.52449e-05
       C  1.60527e-05  2.68746e-04  3.64176e-04
       C -1.49574e-04 -3.37694e-05  1.85187e-04
       C  1.23288e-04 -3.41869e-04 -1.75266e-05
       C -1.24757e-04 -1.40862e-04 -1.19652e-04
       C -2.37331e-04  1.46757e-04  1.36975e-04
       C -2.22658e-04  2.28776e-04  1.14728e-04
       C -1.06125e-05 -1.80905e-04  5.36234e-04
       C  2.19358e-04  9.59750e-05  2.04772e-04
       C -3.03432e-04 -1.55079e-04 -1.82757e-05
       C  1.69114e-04  2.88137e-04 -1.52809e-04
       C -1.40055e-04 -2.47316e-04 -3.83522e-05
       C -1.42625e-04 -1.70527e-04  1.66395e-05
       C -1.60776e-04 -6.47040e-05 -5.54745e-04
       C  3.25207e-04  2.88059e-04  3.48072e-04
       C  2.07865e-04  2.76467e-04 -7.92687e-05
       C -1.45583e-04  2.87655e-04  1.31044e-05
       C -7.69518e-05  1.90130e-04 -6.59169e-05
       C  1.15698e-04 -3.87045e-04  4.64638e-05
       C -2.01849e-04 -7.63751e-04 -1.48820e-04
       C  4.00272e-04 -1.90894e-04 -6.79556e-05
       C  3.48196e-04 -1.08676e-06  1.49728e-04
       C  3.50239e-04  5.89969e-05 -2.09355e-04
       C -2.14113e-04 -1.64156e-04  1.69388e-04
       C  2.40987e-04 -9.36954e-05  1.32823e-04
       C -1.86868e-04 -3.54032e-04  1.26353e-04
       C  3.20644e-05  8.54541e-05  2.37965e-04
       C  1.54835e-04 -8.11543e-05 -1.77901e-04
       C -5.16560e-05 -1.22496e-05 -3.37118e-04
       C  2.57764e-04  2.56635e-04 -1.68826e-04
       C  1.82799e-04 -1.85019e-04  2.09949e-05
       C  2.34196e-04  5.58732e-05 -1.08294e-04
       C -3.83181e-04 -7.33422e-05  1.55022e-04
       C -1.05766e-04  1.83630e-05 -2.81876e-04
       C  9.93596e-05 -2.86135e-04  6.13758e-05
       C -3.40606e-05 -1.31000e-04 -1.39105e-04
       C  1.00959e-04 -3.48528e-04 -2.71744e-05
       C  9.78976e-05 -2.68661e-06 -1.28020e-04
       C -8.68793e-05 -1.89853e-04 -8.24549e-05
       C  4.00362e-05 -1.27920e-04 -7.50002e-06
       C -1.15257e-04  2.53670e-04  2.31535e-05
       C -5.29453e-05  9.54747e-05 -2.07583e-04
       C -7.75275e-05 -6.28519e-04  1.04757e-04
       C -1.86360e-06 -2.82054e-04 -1.88993e-04
       C  1.72433e-04  3.82895e-05 -1.52627e-04
       C  1.25631e-04  3.48600e-04  1.63581e-04
       C  2.74702e-04  1.26418e-04  2.09269e-04
       C  1.94204e-04 -2.21655e-04  2.32915e-05
       C -1.30656e-04 -9.57268e-05 -4.80379e-05
       C  4.46912e-05 -1.18523e-04 -1.58366e-04
       C -1.08193e-04 -1.76478e-04  9.80139e-05
       C -2.87751e-04  5.65695e-05 -6.66837e-05
       C  6.15463e-05  2.67080e-04 -2.11297e-04
       C  4.45328e-05  4.13557e-04 -2.61018e-04
       C  1.66532e-04  3.25562e-04 -9.01140e-05
       C -3.59401e-05  1.34735e-04 -1.29300e-04
       C -2.10349e-04  2.80467e-04  2.94360e-04
       C  3.37042e-04  2.05942e-04 -8.67086e-05
       C  3.13158e-04  2.52540e-04  2.01286e-04
       C -1.74176e-04  8.11362e-04 -8.57854e-05
       C  1.19152e-04 -5.85400e-04  3.57241e-04
       C  2.95498e-04 -1.52143e-04 -1.37940e-04
       C -3.29954e-04  2.55116e-05 -7.82967e-05
       C  3.57601e-05  2.56173e-04  8.46154e-05
       C  9.97991e-05  4.15063e-04  1.63826e-04
       C -1.88309e-04 -1.24825e-04  8.88198e-05
       C -3.17692e-04 -2.19232e-04  4.66109e-04
       C -1.81393e-04 -1.79082e-04  5.62288e-04
       C  2.69132e-04  2.03927e-05 -3.36874e-04
       C -7.39851e-05 -1.00630e-04  3.79774e-04
       C -3.42085e-04 -1.38474e-04  2.10897e-05
       C -6.36543e-05 -2.25618e-04 -2.88944e-04
       C  1.70226e-05  2.18892e-04  3.59160e-04
       C  1.68090e-04  3.48449e-04  7.53003e-05
       C -7.83130e-05 -1.30293e-04 -3.84714e-04
       C  1.73226e-04 -6.80306e-05 -5.43603e-05
       C -4.36101e-04 -2.61368e-04 -5.55850e-04
       C  1.79893e-04  3.75767e-04  8.49844e-05
       C  2.45152e-04  1.11602e-04  1.54821e-04
       C  5.13273e-05  1.11335e-04  6.37750e-05
       C -1.70432e-04  3.07367e-04 -1.88860e-04
       C -2.45866e-04  2.13791e-05 -3.81620e-05
       C  3.98823e-05 -2.28640e-04  7.10756e-06
       C  2.61437e-04 -1.09314e-04 -4.41361e-04
       C  1.82325e-04  4.22484e-05  3.55914e-05
       C  1.87190e-04 -1.97948e-04  1.76542e-04
       C  7.24940e-05  1.35763e-04 -1.71570e-04
       C  3.22000e-04 -2.72865e-04  1.69108e-04
       C  5.49801e-06 -2.30626e-04  3.79376e-04
       C -2.71989e-04 -1.56587e-04 -3.95888e-04
       C  8.77973e-09  1.93590e-04  3.77372e-04
       C -1.96886e-04  3.08621e-04 -7.50274e-05
       C -2.79120e-04 -1.11398e-05  5.66147e-05
       C  3.67280e-04 -3.69568e-04  4.70727e-05
       C -5.30781e-06 -9.03141e-05 -1.40707e-04
       C  7.90467e-05  7.39042e-06  2.00612e-04
       C  1.27422e-04 -2.43605e-04  1.38284e-04
       C  8.12343e-05 -1.26898e-04 -5.96304e-05
       C  3.21939e-04 -1.74462e-04  1.36880e-05
       C -1.37482e-04 -4.72968e-04 -2.42486e-04
       C  3.94641e-05  2.47173e-04 -2.92406e-05
       C -2.23211e-04  2.78835e-04 -1.31776e-04
       C -2.28589e-04  2.08053e-05 -1.30104e-04
       C  2.52723e-04 -3.89797e-04 -2.11469e-04
       C -1.69041e-04  2.75123e-04 -1.27114e-04
       C -2.62799e-04 -1.48201e-04 -2.38057e-04
       C  3.14470e-04  1.96411e-04  3.35134e-04
       C  3.29135e-04 -3.63302e-04  4.33980e-04
       C  3.44280e-05  1.64509e-04 -3.38714e-04
       C  2.16552e-04  1.38272e-04 -1.81132e-05
       C -2.36028e-04  2.26489e-04  4.79832e-05
       C  8.14640e-05  8.22180e-05  1.28032e-06
       C  3.60637e-04 -3.80645e-05  1.95030e-04
       C  1.81938e-04  9.69267e-05  3.00404e-05
       C -1.02389e-04  1.79600e-04 -3.58175e-04
       C -1.27952e-04  3.25928e-05  1.30257e-04
       C -2.81223e-04  1.93297e-04  1.44696e-05
       C -2.71313e-05  3.02924e-04 -6.86988e-05
       H -1.17160e-03  6.15447e-04 -7.62714e-04
       C -8.49784e-05  8.76574e-05 -1.68191e-05
       C  9.37771e-05  1.81297e-05 -1.10033e-04
       H -1.84545e-03  3.04393e-04 -2.78514e-04
       C  3.15336e-06 -2.23796e-04 -3.51586e-04
       H -4.45139e-04  4.25942e-04 -7.98392e-04
       C -4.98871e-05 -1.47178e-04  1.27581e-04
       H  2.05222e-04 -6.05725e-04 -4.52548e-04
       C -2.67302e-04  5.39117e-04  1.51895e-04
       H  3.29531e-04  6.18359e-04  8.95092e-04
       C -4.09556e-04 -2.53184e-04  2.84630e-04
       H  1.97517e-04  1.54200e-04  5.87603e-04
