140
# CELL(abcABC):   17.14040    19.79200    30.00000    90.00000    90.00000    90.00000  Step:           0  Bead:      14 positions{angstrom}  cell{angstrom}
       C  4.45939e+00 -9.96779e+00 -1.67090e-01
       C  5.86411e+00 -9.98721e+00 -1.42874e-01
       C  3.75444e+00 -1.12463e+01 -9.31258e-02
       C  6.65491e+00 -1.11664e+01 -2.18038e-01
       C  4.39903e+00 -7.48532e+00 -4.49718e-02
       C  5.87331e+00 -7.57222e+00 -1.99235e-01
       C  3.70261e+00 -8.73017e+00 -3.52450e-02
       C  6.57503e+00 -8.73254e+00 -2.55480e-01
       C  4.46738e+00 -5.00945e+00 -1.80252e-01
       C  5.82595e+00 -4.98466e+00 -1.28181e-01
       C  3.71941e+00 -6.17763e+00 -1.03777e-01
       C  6.62043e+00 -6.26576e+00 -1.65609e-01
       C  4.46093e+00 -2.50143e+00 -1.50743e-01
       C  5.83724e+00 -2.54052e+00 -3.39320e-01
       C  3.75866e+00 -3.77877e+00 -3.01524e-01
       C  6.59000e+00 -3.80237e+00 -2.64236e-01
       C  8.75539e+00 -9.96130e+00 -9.97648e-02
       C  1.01749e+01 -9.91771e+00 -7.35636e-02
       C  8.06048e+00 -1.12067e+01 -2.57299e-02
       C  1.08452e+01 -1.12208e+01 -1.12603e-01
       C  8.76120e+00 -7.45036e+00 -1.44636e-01
       C  1.01754e+01 -7.45031e+00 -1.59800e-01
       C  7.96320e+00 -8.67317e+00 -1.74815e-01
       C  1.08723e+01 -8.72440e+00 -2.42588e-01
       C  8.69181e+00 -4.98901e+00 -5.65486e-02
       C  1.01283e+01 -4.95783e+00 -2.01453e-01
       C  8.05285e+00 -6.30756e+00 -1.50016e-01
       C  1.08513e+01 -6.25499e+00 -2.14298e-01
       C  8.65911e+00 -2.46597e+00 -2.86174e-01
       C  1.01698e+01 -2.55062e+00 -2.89334e-01
       C  8.00235e+00 -3.77714e+00 -2.75848e-01
       C  1.08242e+01 -3.77446e+00 -3.83406e-02
       C  1.29683e+01 -9.86135e+00 -1.33956e-01
       C  1.43971e+01 -9.83715e+00 -1.80499e-01
       C  1.23011e+01 -1.11108e+01 -3.76489e-02
       C  1.51392e+01 -1.11323e+01 -2.06579e-01
       C  1.30624e+01 -7.42488e+00  4.72873e-03
       C  1.44584e+01 -7.36965e+00 -5.14566e-02
       C  1.22396e+01 -8.62532e+00 -9.20791e-02
       C  1.51313e+01 -8.70773e+00 -1.79569e-01
       C  1.29940e+01 -4.99370e+00 -1.14253e-01
       C  1.43473e+01 -4.93187e+00 -1.43350e-01
       C  1.23072e+01 -6.24121e+00 -1.06325e-01
       C  1.51204e+01 -6.26790e+00 -1.54767e-01
       C  1.30297e+01 -2.52307e+00 -8.94003e-02
       C  1.44200e+01 -2.51583e+00 -1.20528e-01
       C  1.22858e+01 -3.77148e+00 -1.02992e-01
       C  1.51305e+01 -3.72472e+00 -8.88820e-02
       C  1.30445e-01 -9.95799e+00 -2.05800e-01
       C  1.60160e+00 -1.00223e+01 -4.41762e-02
       C -6.08995e-01 -1.12372e+01 -1.71698e-01
       C  2.34353e+00 -1.12721e+01 -1.57270e-02
       C  1.83191e-01 -7.52813e+00 -1.80114e-02
       C  1.57017e+00 -7.56454e+00 -8.69845e-02
       C -6.13769e-01 -8.63705e+00 -1.96452e-01
       C  2.21087e+00 -8.76652e+00 -6.01498e-02
       C  8.35997e-02 -4.99986e+00 -1.45931e-01
       C  1.55204e+00 -4.97184e+00 -4.24828e-02
       C -5.80451e-01 -6.24852e+00 -1.78162e-01
       C  2.25968e+00 -6.30704e+00  4.19024e-02
       C  3.28233e-02 -2.53106e+00  4.45860e-02
       C  1.53352e+00 -2.60740e+00  9.11613e-02
       C -5.77736e-01 -3.74561e+00 -7.72041e-02
       C  2.26792e+00 -3.76065e+00 -7.92362e-02
       C  4.36789e+00 -2.86477e-02 -5.50269e-03
       C  5.78082e+00 -2.41395e-02  2.94845e-02
       C  3.76176e+00 -1.33291e+00 -7.57530e-02
       C  6.52700e+00 -1.31129e+00 -7.46145e-02
       C  4.43433e+00 -1.73182e+01  2.69128e-03
       C  5.90174e+00 -1.73834e+01 -1.43849e-02
       C  3.71259e+00 -1.86531e+01 -1.70310e-01
       C  6.42638e+00 -1.85514e+01  1.78151e-01
       C  4.45096e+00 -1.49221e+01 -2.83104e-02
       C  5.90509e+00 -1.49189e+01  4.50855e-02
       C  3.72202e+00 -1.61215e+01 -3.28369e-02
       C  6.55532e+00 -1.61089e+01  5.58735e-02
       C  4.48614e+00 -1.24433e+01 -8.14330e-02
       C  5.85318e+00 -1.23490e+01 -1.36412e-01
       C  3.67875e+00 -1.36294e+01  1.26846e-03
       C  6.59572e+00 -1.37494e+01 -1.19772e-01
       C  8.75690e+00  1.63856e-05 -4.14583e-02
       C  1.00834e+01 -6.70378e-03 -1.24926e-01
       C  8.03759e+00 -1.32852e+00  6.59155e-03
       C  1.08547e+01 -1.30582e+00 -1.39569e-01
       C  8.66808e+00 -1.73718e+01  1.75090e-01
       C  1.01763e+01 -1.74021e+01  2.09048e-01
       C  7.96572e+00 -1.86483e+01 -1.96686e-03
       C  1.08823e+01 -1.85436e+01 -1.07856e-01
       C  8.69619e+00 -1.48564e+01  3.16231e-03
       C  1.02106e+01 -1.48838e+01 -1.21321e-01
       C  7.98146e+00 -1.61173e+01  1.77520e-01
       C  1.08390e+01 -1.60724e+01 -2.81867e-02
       C  8.74383e+00 -1.24375e+01  5.92445e-02
       C  1.01471e+01 -1.23961e+01 -6.53309e-02
       C  8.06085e+00 -1.36567e+01  1.84578e-03
       C  1.08864e+01 -1.36456e+01 -9.61282e-03
       C  1.28457e+01  1.60448e-02 -1.83106e-01
       C  1.42977e+01 -3.34062e-02 -2.51914e-02
       C  1.21949e+01 -1.27495e+00 -1.26064e-02
       C  1.51010e+01 -1.23893e+00 -1.13848e-01
       C  1.30478e+01 -1.74071e+01 -9.89663e-02
       C  1.44340e+01 -1.73759e+01 -2.01711e-02
       C  1.22396e+01 -1.85386e+01 -1.28635e-01
       C  1.51079e+01 -1.85723e+01  7.74522e-02
       C  1.29931e+01 -1.49025e+01 -2.42293e-01
       C  1.44473e+01 -1.49066e+01 -1.78345e-01
       C  1.22339e+01 -1.61346e+01 -1.03910e-01
       C  1.51752e+01 -1.61074e+01 -2.64849e-01
       C  1.29254e+01 -1.23739e+01 -6.27718e-02
       C  1.43882e+01 -1.23530e+01 -1.63821e-01
       C  1.23627e+01 -1.36526e+01 -6.56106e-03
       C  1.51183e+01 -1.36604e+01 -6.20940e-02
       C  1.40100e-01 -2.92296e-02  5.56309e-02
       C  1.54488e+00 -2.87126e-02 -2.15669e-03
       C -5.69627e-01 -1.29078e+00 -2.25230e-02
       C  2.31079e+00 -1.29908e+00 -7.84912e-02
       C  1.08869e-01 -1.73491e+01 -2.25710e-01
       C  1.60171e+00 -1.72648e+01 -1.46984e-01
       C -5.27981e-01 -1.85977e+01 -1.15077e-01
       C  2.32953e+00 -1.86397e+01 -1.82175e-01
       C  4.82998e-02 -1.48765e+01 -7.56817e-02
       C  1.56474e+00 -1.48669e+01 -1.15284e-01
       C -5.59928e-01 -1.61068e+01 -2.39535e-01
       C  2.29825e+00 -1.61470e+01 -1.06645e-01
       C  1.24584e-01 -1.24235e+01 -6.55413e-02
       C  1.61787e+00 -1.24379e+01  3.23468e-02
       C -6.20682e-01 -1.36798e+01 -7.31390e-02
       C  2.25045e+00 -1.36052e+01  2.36192e-02
       H  5.78598e+00 -1.03838e+01  5.53568e+00
       C  5.43322e+00 -9.46147e+00  4.92878e+00
       C  5.91316e+00 -8.06884e+00  5.15953e+00
       H  6.89261e+00 -7.67800e+00  5.46804e+00
       C  5.02340e+00 -7.14283e+00  4.70296e+00
       H  5.36413e+00 -6.26323e+00  4.97226e+00
       C  3.97897e+00 -7.43423e+00  3.87808e+00
       H  3.33198e+00 -6.61527e+00  3.53053e+00
       C  3.75581e+00 -8.78423e+00  3.52431e+00
       H  2.94060e+00 -8.94455e+00  2.94043e+00
       C  4.46904e+00 -9.85110e+00  4.05155e+00
       H  4.21758e+00 -1.10196e+01  3.85923e+00
140
# CELL(abcABC):   17.14040    19.79200    30.00000    90.00000    90.00000    90.00000  Step:         100  Bead:      14 positions{angstrom}  cell{angstrom}
       C  4.36758e+00 -9.95843e+00 -9.58563e-02
       C  5.78204e+00 -9.92778e+00 -5.07563e-02
       C  3.76192e+00 -1.11976e+01 -1.16516e-01
       C  6.50315e+00 -1.11887e+01 -8.02698e-02
       C  4.43411e+00 -7.40907e+00 -3.87265e-02
       C  5.87700e+00 -7.49815e+00 -1.38212e-01
       C  3.66825e+00 -8.69529e+00 -9.12344e-02
       C  6.52171e+00 -8.69645e+00 -1.47398e-01
       C  4.44977e+00 -5.01259e+00  1.17642e-02
       C  5.83245e+00 -5.04309e+00 -1.67208e-01
       C  3.73481e+00 -6.20362e+00 -1.99673e-02
       C  6.50788e+00 -6.29834e+00 -1.61658e-01
       C  4.44849e+00 -2.51160e+00 -1.07278e-01
       C  5.83596e+00 -2.48661e+00 -9.34941e-02
       C  3.69301e+00 -3.78209e+00  2.01764e-02
       C  6.52859e+00 -3.81834e+00 -1.63869e-01
       C  8.69986e+00 -9.91464e+00 -1.19276e-01
       C  1.01058e+01 -9.92175e+00 -2.26831e-03
       C  7.98204e+00 -1.11041e+01 -8.96826e-02
       C  1.08393e+01 -1.11442e+01  4.09924e-02
       C  8.71034e+00 -7.57312e+00 -3.01625e-01
       C  1.01351e+01 -7.51700e+00 -9.96046e-02
       C  7.94052e+00 -8.71058e+00 -1.69208e-01
       C  1.08644e+01 -8.64799e+00 -7.88516e-02
       C  8.69601e+00 -5.00627e+00 -1.73095e-01
       C  1.01925e+01 -4.97752e+00 -1.24883e-01
       C  7.98766e+00 -6.19105e+00 -3.39094e-01
       C  1.08432e+01 -6.22642e+00 -4.32826e-02
       C  8.68727e+00 -2.48566e+00 -4.25075e-02
       C  1.01679e+01 -2.44142e+00 -2.49974e-02
       C  7.99400e+00 -3.75550e+00 -2.43093e-01
       C  1.09117e+01 -3.69060e+00 -7.29339e-02
       C  1.29108e+01 -9.88202e+00 -1.67205e-01
       C  1.43138e+01 -9.93532e+00 -2.72598e-01
       C  1.22549e+01 -1.11816e+01 -2.01905e-01
       C  1.50461e+01 -1.11797e+01 -1.81411e-01
       C  1.29979e+01 -7.54564e+00 -3.90118e-01
       C  1.44427e+01 -7.47504e+00 -4.06039e-01
       C  1.21724e+01 -8.75434e+00 -2.19818e-01
       C  1.51745e+01 -8.73157e+00 -2.07359e-01
       C  1.31265e+01 -4.95067e+00 -1.53042e-01
       C  1.44034e+01 -5.07748e+00 -4.42706e-02
       C  1.22652e+01 -6.26796e+00 -1.83158e-01
       C  1.51383e+01 -6.27025e+00 -2.15922e-01
       C  1.30336e+01 -2.51920e+00 -3.89104e-02
       C  1.44277e+01 -2.50106e+00 -2.99611e-02
       C  1.22486e+01 -3.69773e+00 -1.76644e-01
       C  1.51292e+01 -3.70452e+00 -2.87088e-02
       C  1.23144e-01 -9.96406e+00 -6.78822e-02
       C  1.55251e+00 -9.95652e+00 -3.93539e-02
       C -5.60346e-01 -1.12104e+01 -4.81431e-02
       C  2.27284e+00 -1.12128e+01 -1.96935e-01
       C  1.03780e-01 -7.45252e+00 -1.96687e-01
       C  1.59120e+00 -7.47317e+00 -2.65474e-01
       C -5.44922e-01 -8.73779e+00 -1.76045e-01
       C  2.30949e+00 -8.77153e+00 -1.69622e-01
       C  2.13830e-01 -4.97572e+00 -2.26276e-01
       C  1.55853e+00 -4.99545e+00 -1.86014e-01
       C -5.75155e-01 -6.29375e+00 -3.09281e-01
       C  2.23740e+00 -6.15322e+00 -5.44531e-02
       C  1.78297e-01 -2.57357e+00 -1.83169e-01
       C  1.55883e+00 -2.53899e+00 -3.43515e-02
       C -5.63554e-01 -3.82441e+00 -2.17801e-01
       C  2.26427e+00 -3.75280e+00 -1.01457e-01
       C  4.40317e+00 -8.42461e-02 -7.82007e-02
       C  5.77662e+00  1.41813e-02 -1.94767e-01
       C  3.67907e+00 -1.37513e+00 -7.21355e-02
       C  6.58237e+00 -1.33386e+00 -2.10005e-01
       C  4.42950e+00 -1.74411e+01 -5.91611e-02
       C  5.86850e+00 -1.74178e+01  9.70284e-03
       C  3.75883e+00 -1.86478e+01 -4.74579e-02
       C  6.56902e+00 -1.86065e+01  2.43486e-02
       C  4.52633e+00 -1.49256e+01 -8.34889e-02
       C  5.85380e+00 -1.49205e+01  1.33212e-01
       C  3.75119e+00 -1.61431e+01 -1.13715e-01
       C  6.54709e+00 -1.62282e+01  1.63051e-01
       C  4.35909e+00 -1.24673e+01 -2.89785e-02
       C  5.82837e+00 -1.24446e+01  1.47935e-02
       C  3.71539e+00 -1.37247e+01 -1.44391e-01
       C  6.53776e+00 -1.36640e+01  1.00981e-01
       C  8.76553e+00 -8.39331e-02  4.41079e-02
       C  1.02136e+01  1.13500e-03 -3.04209e-02
       C  7.97930e+00 -1.18192e+00 -1.07119e-01
       C  1.09030e+01 -1.30664e+00  5.36215e-03
       C  8.76598e+00 -1.73727e+01 -5.80021e-02
       C  1.01917e+01 -1.73026e+01 -6.03992e-02
       C  8.08045e+00 -1.86333e+01 -1.40751e-02
       C  1.08966e+01 -1.86558e+01 -1.51430e-02
       C  8.62345e+00 -1.48955e+01  1.05770e-01
       C  1.01662e+01 -1.48828e+01  3.18950e-02
       C  8.02966e+00 -1.61462e+01  1.40611e-02
       C  1.08183e+01 -1.61424e+01 -1.21540e-01
       C  8.63838e+00 -1.24058e+01 -3.94492e-02
       C  1.00919e+01 -1.24296e+01 -4.04762e-02
       C  7.95224e+00 -1.35782e+01  1.04532e-01
       C  1.08944e+01 -1.36451e+01  6.75590e-02
       C  1.30414e+01 -1.37088e-02 -9.62303e-02
       C  1.43929e+01 -8.09876e-02  6.50791e-02
       C  1.23373e+01 -1.21412e+00 -1.52131e-01
       C  1.51599e+01 -1.37091e+00  1.10562e-01
       C  1.30678e+01 -1.73705e+01  2.53216e-02
       C  1.44527e+01 -1.73313e+01 -1.74839e-01
       C  1.23619e+01 -1.85366e+01  3.52603e-02
       C  1.51348e+01 -1.85764e+01 -9.50779e-02
       C  1.30055e+01 -1.49692e+01  3.37904e-02
       C  1.43924e+01 -1.49489e+01 -1.23083e-01
       C  1.22569e+01 -1.61805e+01  3.67834e-02
       C  1.51489e+01 -1.61067e+01 -1.14788e-01
       C  1.30027e+01 -1.23915e+01 -2.37669e-01
       C  1.44844e+01 -1.24612e+01 -7.21169e-02
       C  1.23222e+01 -1.36670e+01 -1.11353e-01
       C  1.51439e+01 -1.36336e+01 -1.00870e-01
       C  1.67359e-01 -5.15194e-02 -1.89826e-02
       C  1.62518e+00 -6.23371e-02 -5.67458e-02
       C -5.20136e-01 -1.29019e+00 -9.09898e-02
       C  2.26329e+00 -1.34055e+00 -6.63024e-02
       C  2.17886e-01 -1.73585e+01 -1.92328e-01
       C  1.56984e+00 -1.74521e+01  4.09294e-02
       C -5.38303e-01 -1.85749e+01 -1.08240e-01
       C  2.28085e+00 -1.86622e+01 -6.30608e-03
       C  1.03792e-01 -1.48530e+01 -1.97819e-01
       C  1.60297e+00 -1.49511e+01 -1.90117e-01
       C -5.45864e-01 -1.61041e+01 -1.11630e-01
       C  2.35983e+00 -1.61951e+01 -1.12878e-01
       C  2.08720e-01 -1.23911e+01 -1.13658e-01
       C  1.57598e+00 -1.24940e+01 -1.30261e-01
       C -5.53422e-01 -1.36667e+01 -1.40500e-01
       C  2.32728e+00 -1.37356e+01 -1.50090e-01
       H  5.91378e+00 -1.03661e+01  5.26571e+00
       C  5.28543e+00 -9.47530e+00  5.01377e+00
       C  5.90461e+00 -8.23385e+00  5.02856e+00
       H  6.74920e+00 -8.00224e+00  5.52757e+00
       C  5.17052e+00 -7.11597e+00  4.49637e+00
       H  5.47639e+00 -6.27497e+00  4.53109e+00
       C  3.94245e+00 -7.35323e+00  3.95631e+00
       H  3.38135e+00 -6.44811e+00  3.94672e+00
       C  3.58161e+00 -8.63669e+00  3.69761e+00
       H  2.63233e+00 -8.72504e+00  3.16441e+00
       C  4.20341e+00 -9.72806e+00  4.19333e+00
       H  3.80489e+00 -1.07013e+01  4.09579e+00
