140
# CELL(abcABC):   32.39066    37.40146    56.69178    90.00000    90.00000    90.00000  Step:           0  Bead:       0 x_centroid{angstrom}  cell{atomic_unit}
       C  4.42749e+00 -9.99009e+00 -1.14729e-01
       C  5.85233e+00 -9.98088e+00 -1.15283e-01
       C  3.71959e+00 -1.12068e+01 -6.22701e-02
       C  6.59566e+00 -1.11703e+01 -2.27426e-01
       C  4.43579e+00 -7.49953e+00 -6.18165e-02
       C  5.87741e+00 -7.53862e+00 -1.79446e-01
       C  3.69867e+00 -8.75425e+00 -4.92735e-02
       C  6.56951e+00 -8.76192e+00 -2.21715e-01
       C  4.42973e+00 -5.02783e+00 -1.68032e-01
       C  5.84183e+00 -5.02067e+00 -1.64575e-01
       C  3.70156e+00 -6.25022e+00 -1.11917e-01
       C  6.58351e+00 -6.27063e+00 -1.40883e-01
       C  4.44363e+00 -2.53092e+00 -1.30149e-01
       C  5.87799e+00 -2.54141e+00 -2.57327e-01
       C  3.72216e+00 -3.80333e+00 -2.79512e-01
       C  6.57089e+00 -3.77086e+00 -2.20652e-01
       C  8.73603e+00 -9.97404e+00 -1.16412e-01
       C  1.01492e+01 -9.93911e+00 -9.37632e-02
       C  8.00424e+00 -1.12038e+01  4.76753e-02
       C  1.08975e+01 -1.11767e+01 -9.31800e-02
       C  8.74232e+00 -7.51082e+00 -1.44360e-01
       C  1.02047e+01 -7.45237e+00 -1.35149e-01
       C  7.98991e+00 -8.72714e+00 -1.59570e-01
       C  1.08742e+01 -8.72241e+00 -2.43149e-01
       C  8.71156e+00 -4.98808e+00 -6.42107e-02
       C  1.01488e+01 -4.98981e+00 -1.82768e-01
       C  8.04260e+00 -6.26882e+00 -1.43287e-01
       C  1.08400e+01 -6.21799e+00 -2.17736e-01
       C  8.68511e+00 -2.52237e+00 -2.12147e-01
       C  1.01381e+01 -2.52737e+00 -2.53392e-01
       C  7.95095e+00 -3.80309e+00 -2.67747e-01
       C  1.08720e+01 -3.75797e+00 -2.78665e-02
       C  1.29478e+01 -9.89630e+00 -1.38411e-01
       C  1.44136e+01 -9.87693e+00 -1.74268e-01
       C  1.22994e+01 -1.11432e+01  1.73945e-02
       C  1.51257e+01 -1.11551e+01 -1.84870e-01
       C  1.30349e+01 -7.46913e+00  4.93198e-03
       C  1.44152e+01 -7.42539e+00 -1.13862e-01
       C  1.22841e+01 -8.66422e+00 -1.74806e-01
       C  1.51211e+01 -8.66185e+00 -1.58031e-01
       C  1.29911e+01 -4.98296e+00 -1.17814e-01
       C  1.44311e+01 -5.00140e+00 -1.47004e-01
       C  1.22914e+01 -6.22318e+00 -1.37882e-01
       C  1.51496e+01 -6.25675e+00 -1.59439e-01
       C  1.30143e+01 -2.53501e+00 -4.31667e-02
       C  1.44496e+01 -2.48108e+00 -1.00744e-01
       C  1.23130e+01 -3.76092e+00 -1.29402e-01
       C  1.51290e+01 -3.73316e+00 -7.82403e-02
       C  9.71372e-02 -9.95771e+00 -2.07124e-01
       C  1.53559e+00 -1.00095e+01 -4.18413e-02
       C -6.22167e-01 -1.12249e+01 -1.81747e-01
       C  2.30700e+00 -1.12735e+01 -2.85247e-02
       C  1.70667e-01 -7.46703e+00 -7.04698e-02
       C  1.56902e+00 -7.51740e+00 -9.31744e-02
       C -6.07592e-01 -8.72180e+00 -1.88806e-01
       C  2.24104e+00 -8.78328e+00 -5.40768e-02
       C  1.40956e-01 -4.99744e+00 -5.79533e-02
       C  1.59437e+00 -4.98671e+00 -5.82812e-02
       C -5.63927e-01 -6.26645e+00 -1.37916e-01
       C  2.30243e+00 -6.26340e+00  3.94554e-03
       C  1.14387e-01 -2.52799e+00  2.69255e-02
       C  1.54149e+00 -2.54259e+00  4.05159e-02
       C -5.85596e-01 -3.75321e+00 -8.80738e-02
       C  2.28409e+00 -3.75564e+00 -1.48789e-01
       C  4.41206e+00 -6.90309e-02 -4.87399e-02
       C  5.84178e+00 -8.12289e-02  9.52149e-03
       C  3.73667e+00 -1.30551e+00 -8.15570e-02
       C  6.55962e+00 -1.30953e+00 -5.64470e-02
       C  4.41530e+00 -1.73242e+01 -4.15856e-02
       C  5.86385e+00 -1.73867e+01 -3.71511e-02
       C  3.70778e+00 -1.85834e+01 -1.59978e-01
       C  6.50987e+00 -1.85842e+01  1.56975e-01
       C  4.44929e+00 -1.48902e+01 -1.08878e-02
       C  5.85306e+00 -1.49112e+01 -1.31684e-02
       C  3.69111e+00 -1.61097e+01 -3.81297e-02
       C  6.59057e+00 -1.61190e+01  5.87179e-02
       C  4.44454e+00 -1.24275e+01 -6.90801e-02
       C  5.85923e+00 -1.23897e+01 -1.68214e-01
       C  3.68972e+00 -1.36751e+01 -4.89978e-02
       C  6.59446e+00 -1.36778e+01 -1.26495e-01
       C  8.73848e+00 -3.86119e-02 -3.52972e-02
       C  1.01394e+01 -3.93502e-02 -8.84162e-02
       C  8.03010e+00 -1.29751e+00 -2.96797e-03
       C  1.08151e+01 -1.31665e+00 -1.37407e-01
       C  8.68071e+00 -1.73739e+01  2.39458e-01
       C  1.01435e+01 -1.73551e+01  1.93704e-01
       C  7.95844e+00 -1.86577e+01  3.42557e-02
       C  1.08089e+01 -1.85820e+01 -6.60086e-02
       C  8.70582e+00 -1.48760e+01 -7.71826e-03
       C  1.01671e+01 -1.48755e+01 -4.49312e-02
       C  7.99622e+00 -1.61202e+01  9.96744e-02
       C  1.08478e+01 -1.61199e+01 -2.29601e-02
       C  8.76354e+00 -1.24289e+01  7.89369e-02
       C  1.01715e+01 -1.24062e+01 -3.74323e-02
       C  8.02093e+00 -1.36603e+01 -9.95843e-03
       C  1.09091e+01 -1.36454e+01 -1.75867e-02
       C  1.29302e+01 -1.60168e-02 -1.71476e-01
       C  1.43280e+01 -2.35890e-02  4.30119e-03
       C  1.22793e+01 -1.28367e+00  7.15680e-03
       C  1.51019e+01 -1.23085e+00 -7.57298e-02
       C  1.29952e+01 -1.74009e+01 -1.11052e-01
       C  1.44346e+01 -1.73611e+01 -3.32472e-02
       C  1.22235e+01 -1.85644e+01 -1.63331e-01
       C  1.51097e+01 -1.85839e+01  4.44820e-02
       C  1.29895e+01 -1.49229e+01 -2.02122e-01
       C  1.44276e+01 -1.48967e+01 -1.38074e-01
       C  1.22556e+01 -1.61457e+01 -1.51330e-01
       C  1.51508e+01 -1.61609e+01 -1.92732e-01
       C  1.29967e+01 -1.23940e+01  7.75063e-03
       C  1.44259e+01 -1.23712e+01 -1.24619e-01
       C  1.23410e+01 -1.36436e+01 -4.69146e-02
       C  1.50871e+01 -1.36567e+01 -9.11333e-02
       C  1.41911e-01 -5.19969e-02  2.01318e-02
       C  1.54373e+00 -6.56196e-02 -2.28747e-02
       C -5.99393e-01 -1.28983e+00  3.73051e-03
       C  2.28627e+00 -1.30582e+00 -5.51941e-02
       C  1.37533e-01 -1.73428e+01 -2.42094e-01
       C  1.55745e+00 -1.73247e+01 -1.53109e-01
       C -5.85247e-01 -1.85874e+01 -8.35052e-02
       C  2.27654e+00 -1.86351e+01 -1.82035e-01
       C  8.73684e-02 -1.48969e+01 -1.42501e-01
       C  1.54293e+00 -1.49080e+01 -1.33465e-01
       C -5.67447e-01 -1.61494e+01 -1.91043e-01
       C  2.27912e+00 -1.61004e+01 -1.68993e-01
       C  1.31770e-01 -1.24446e+01 -7.16587e-02
       C  1.56510e+00 -1.24445e+01  5.19448e-02
       C -6.39178e-01 -1.36955e+01 -9.29044e-02
       C  2.25905e+00 -1.36876e+01  5.64091e-02
       H  5.88765e+00 -1.02756e+01  5.67188e+00
       C  5.46369e+00 -9.45394e+00  4.99841e+00
       C  5.85267e+00 -8.10109e+00  5.14810e+00
       H  6.90776e+00 -7.82014e+00  5.54281e+00
       C  5.04116e+00 -7.12921e+00  4.64984e+00
       H  5.29533e+00 -6.13826e+00  5.01163e+00
       C  3.99563e+00 -7.42255e+00  3.87883e+00
       H  3.23828e+00 -6.62399e+00  3.53319e+00
       C  3.74068e+00 -8.74845e+00  3.52300e+00
       H  2.88323e+00 -8.98640e+00  2.82162e+00
       C  4.48664e+00 -9.81576e+00  4.05813e+00
       H  4.17771e+00 -1.08901e+01  3.70555e+00
140
# CELL(abcABC):   32.39066    37.40146    56.69178    90.00000    90.00000    90.00000  Step:         100  Bead:       0 x_centroid{angstrom}  cell{atomic_unit}
       C  4.39206e+00 -9.96243e+00 -8.91918e-02
       C  5.80818e+00 -9.91667e+00 -2.53247e-02
       C  3.72622e+00 -1.12220e+01 -1.16098e-01
       C  6.50419e+00 -1.11968e+01 -8.43205e-02
       C  4.40654e+00 -7.44061e+00 -2.60896e-02
       C  5.83857e+00 -7.47516e+00 -1.41547e-01
       C  3.66664e+00 -8.72078e+00 -6.33372e-02
       C  6.53702e+00 -8.70731e+00 -1.30285e-01
       C  4.43330e+00 -5.01607e+00  3.63945e-02
       C  5.81606e+00 -5.02271e+00 -2.00022e-01
       C  3.71127e+00 -6.20477e+00 -3.00498e-02
       C  6.58047e+00 -6.25227e+00 -1.82977e-01
       C  4.46486e+00 -2.51487e+00 -5.66337e-02
       C  5.86772e+00 -2.52178e+00 -6.26204e-02
       C  3.72611e+00 -3.78202e+00  1.17563e-02
       C  6.55575e+00 -3.77065e+00 -1.55379e-01
       C  8.71336e+00 -9.89461e+00 -1.01486e-01
       C  1.01474e+01 -9.87558e+00  1.02984e-02
       C  7.98625e+00 -1.11524e+01 -8.19595e-02
       C  1.08510e+01 -1.11261e+01  5.09787e-02
       C  8.67094e+00 -7.46506e+00 -2.62388e-01
       C  1.01169e+01 -7.45881e+00 -1.25947e-01
       C  7.94482e+00 -8.71302e+00 -1.12698e-01
       C  1.08505e+01 -8.64920e+00 -1.05805e-01
       C  8.67454e+00 -4.97652e+00 -1.26172e-01
       C  1.01392e+01 -4.93279e+00 -1.00931e-01
       C  8.00927e+00 -6.18402e+00 -2.64174e-01
       C  1.08248e+01 -6.21280e+00 -7.78464e-02
       C  8.72281e+00 -2.50789e+00 -6.47303e-02
       C  1.01423e+01 -2.47825e+00 -6.38172e-02
       C  7.97532e+00 -3.73061e+00 -1.77452e-01
       C  1.08744e+01 -3.70566e+00 -8.65368e-02
       C  1.29559e+01 -9.91439e+00 -1.64937e-01
       C  1.43694e+01 -9.95172e+00 -2.16565e-01
       C  1.22611e+01 -1.11934e+01 -2.11117e-01
       C  1.51088e+01 -1.11802e+01 -1.30566e-01
       C  1.29623e+01 -7.52355e+00 -3.20266e-01
       C  1.44231e+01 -7.47875e+00 -3.98651e-01
       C  1.22385e+01 -8.71447e+00 -2.48340e-01
       C  1.51310e+01 -8.71077e+00 -1.76210e-01
       C  1.30162e+01 -4.97481e+00 -1.18178e-01
       C  1.44358e+01 -5.04031e+00 -5.10987e-02
       C  1.22411e+01 -6.24210e+00 -1.92274e-01
       C  1.51233e+01 -6.28098e+00 -1.93712e-01
       C  1.30657e+01 -2.48770e+00 -4.10132e-02
       C  1.44533e+01 -2.48976e+00 -1.66477e-02
       C  1.22977e+01 -3.74943e+00 -1.46184e-01
       C  1.51686e+01 -3.76772e+00 -3.35033e-02
       C  1.24925e-01 -9.99244e+00 -5.48432e-02
       C  1.53965e+00 -9.96581e+00 -6.66843e-02
       C -5.82590e-01 -1.11985e+01 -5.15149e-02
       C  2.30110e+00 -1.11856e+01 -1.93729e-01
       C  1.02312e-01 -7.47602e+00 -2.50516e-01
       C  1.59113e+00 -7.47986e+00 -2.82650e-01
       C -5.81837e-01 -8.79279e+00 -1.75840e-01
       C  2.27508e+00 -8.75065e+00 -1.01533e-01
       C  1.47595e-01 -5.00900e+00 -2.30846e-01
       C  1.57909e+00 -4.99437e+00 -2.13790e-01
       C -5.98985e-01 -6.26486e+00 -3.14099e-01
       C  2.29554e+00 -6.19607e+00 -9.81972e-02
       C  1.44977e-01 -2.51960e+00 -1.79874e-01
       C  1.57216e+00 -2.54296e+00 -1.13236e-01
       C -5.68518e-01 -3.79827e+00 -2.02732e-01
       C  2.26469e+00 -3.76815e+00 -7.67832e-02
       C  4.38619e+00 -8.24927e-02 -5.36491e-02
       C  5.82760e+00 -4.95331e-02 -1.46280e-01
       C  3.69295e+00 -1.32883e+00 -7.47393e-02
       C  6.60364e+00 -1.30578e+00 -1.57099e-01
       C  4.42170e+00 -1.74406e+01 -1.10976e-01
       C  5.88549e+00 -1.74247e+01  2.72586e-02
       C  3.70605e+00 -1.86772e+01 -4.18780e-03
       C  6.58676e+00 -1.86251e+01 -2.65647e-02
       C  4.43988e+00 -1.49174e+01 -6.36666e-02
       C  5.86207e+00 -1.49313e+01  9.91244e-02
       C  3.75498e+00 -1.61339e+01 -1.44310e-01
       C  6.58108e+00 -1.61911e+01  1.16776e-01
       C  4.36742e+00 -1.24715e+01 -3.34870e-02
       C  5.83822e+00 -1.24672e+01  3.81284e-02
       C  3.73087e+00 -1.37157e+01 -1.56231e-01
       C  6.51795e+00 -1.36849e+01  9.59279e-02
       C  8.75702e+00 -4.06816e-02  2.95272e-02
       C  1.02026e+01 -4.82179e-02  1.90492e-02
       C  8.02161e+00 -1.22841e+00 -1.16233e-01
       C  1.09008e+01 -1.31569e+00  1.48106e-02
       C  8.73427e+00 -1.73808e+01 -7.86276e-02
       C  1.01730e+01 -1.73437e+01 -8.83584e-02
       C  8.05264e+00 -1.86037e+01  6.29879e-02
       C  1.08991e+01 -1.85705e+01 -5.61874e-03
       C  8.69167e+00 -1.49210e+01  1.34349e-01
       C  1.01638e+01 -1.48894e+01  5.97665e-02
       C  8.02376e+00 -1.61516e+01 -2.64942e-03
       C  1.08707e+01 -1.61152e+01 -1.07608e-01
       C  8.63028e+00 -1.23996e+01 -5.65051e-02
       C  1.01033e+01 -1.24112e+01  3.09202e-02
       C  7.96133e+00 -1.36112e+01  8.42187e-02
       C  1.08923e+01 -1.36345e+01  5.62024e-02
       C  1.30219e+01 -2.46547e-02 -1.12439e-01
       C  1.44386e+01 -5.75976e-02  1.14364e-02
       C  1.23216e+01 -1.26091e+00 -1.06228e-01
       C  1.51520e+01 -1.28409e+00  5.21041e-02
       C  1.30618e+01 -1.73771e+01  2.97091e-02
       C  1.44704e+01 -1.73563e+01 -1.99997e-01
       C  1.23203e+01 -1.85812e+01  1.48280e-02
       C  1.51250e+01 -1.85821e+01 -9.20075e-02
       C  1.30063e+01 -1.49220e+01 -5.81719e-03
       C  1.44339e+01 -1.49326e+01 -9.05823e-02
       C  1.22837e+01 -1.61729e+01  3.66853e-02
       C  1.51430e+01 -1.61399e+01 -1.17549e-01
       C  1.29784e+01 -1.24275e+01 -1.77296e-01
       C  1.44162e+01 -1.24204e+01 -7.31694e-02
       C  1.23222e+01 -1.36734e+01 -9.52142e-02
       C  1.51266e+01 -1.36540e+01 -1.07071e-01
       C  1.54179e-01 -2.12403e-02 -4.30408e-02
       C  1.60365e+00 -7.04293e-02 -2.08754e-02
       C -5.34436e-01 -1.28206e+00 -1.11648e-01
       C  2.27634e+00 -1.29967e+00 -7.45331e-02
       C  2.12015e-01 -1.73711e+01 -1.64957e-01
       C  1.60797e+00 -1.73996e+01  6.80206e-02
       C -5.61544e-01 -1.85949e+01 -9.66796e-02
       C  2.29889e+00 -1.86377e+01  5.46042e-04
       C  1.86022e-01 -1.49141e+01 -2.24241e-01
       C  1.59955e+00 -1.49536e+01 -1.73013e-01
       C -5.59644e-01 -1.61225e+01 -1.13427e-01
       C  2.32132e+00 -1.62123e+01 -1.08508e-01
       C  1.62729e-01 -1.24547e+01 -1.04679e-01
       C  1.60571e+00 -1.24910e+01 -1.41766e-01
       C -5.75823e-01 -1.36719e+01 -2.03796e-01
       C  2.30236e+00 -1.37135e+01 -1.35321e-01
       H  5.91073e+00 -1.03273e+01  5.44373e+00
       C  5.32557e+00 -9.48807e+00  4.97871e+00
       C  5.86532e+00 -8.21232e+00  5.05211e+00
       H  6.84743e+00 -7.92104e+00  5.42306e+00
       C  5.14984e+00 -7.13232e+00  4.54303e+00
       H  5.59981e+00 -6.16302e+00  4.62633e+00
       C  3.93805e+00 -7.35176e+00  3.94065e+00
       H  3.28511e+00 -6.41683e+00  3.86383e+00
       C  3.49550e+00 -8.64456e+00  3.72446e+00
       H  2.54177e+00 -8.70497e+00  3.14966e+00
       C  4.17184e+00 -9.70310e+00  4.22285e+00
       H  3.84420e+00 -1.07516e+01  4.10332e+00
