140
# CELL(abcABC):   17.14040    19.79200    30.00000    90.00000    90.00000    90.00000  Step:           0  Bead:       3 positions{angstrom}  cell{angstrom}
       C  4.40296e+00 -9.95667e+00 -1.20645e-01
       C  5.88033e+00 -9.97307e+00 -8.32318e-02
       C  3.71866e+00 -1.11647e+01 -5.58262e-02
       C  6.58191e+00 -1.11424e+01 -2.01779e-01
       C  4.46714e+00 -7.52063e+00 -6.31161e-02
       C  5.87009e+00 -7.50700e+00 -1.52823e-01
       C  3.68897e+00 -8.80084e+00 -1.63701e-01
       C  6.58442e+00 -8.69179e+00 -2.38008e-01
       C  4.38733e+00 -5.07073e+00 -2.09082e-01
       C  5.82788e+00 -4.99634e+00 -2.29522e-01
       C  3.66258e+00 -6.24511e+00 -9.86276e-02
       C  6.55404e+00 -6.23016e+00 -7.40625e-02
       C  4.41908e+00 -2.58893e+00 -1.33934e-01
       C  5.91963e+00 -2.52562e+00 -2.82142e-01
       C  3.68733e+00 -3.87163e+00 -2.73730e-01
       C  6.53044e+00 -3.82527e+00 -2.30630e-01
       C  8.72793e+00 -9.94902e+00 -1.12870e-01
       C  1.00965e+01 -9.93241e+00 -8.59921e-02
       C  7.93966e+00 -1.12033e+01  8.31738e-02
       C  1.08880e+01 -1.11561e+01 -1.00322e-01
       C  8.70463e+00 -7.49353e+00 -1.48913e-01
       C  1.02299e+01 -7.47735e+00 -9.95158e-02
       C  8.00119e+00 -8.74856e+00 -1.88379e-01
       C  1.08794e+01 -8.70351e+00 -2.25346e-01
       C  8.64031e+00 -5.04807e+00 -5.48435e-02
       C  1.01693e+01 -4.96131e+00 -2.14655e-01
       C  8.04582e+00 -6.25361e+00 -1.88743e-01
       C  1.08388e+01 -6.16897e+00 -1.62930e-01
       C  8.64368e+00 -2.49039e+00 -1.57341e-01
       C  1.00929e+01 -2.56916e+00 -1.86382e-01
       C  7.89841e+00 -3.84813e+00 -2.43990e-01
       C  1.08889e+01 -3.71161e+00 -2.71641e-02
       C  1.29237e+01 -9.91435e+00 -1.63663e-01
       C  1.44545e+01 -9.88600e+00 -1.50568e-01
       C  1.23456e+01 -1.11650e+01  2.57360e-02
       C  1.50947e+01 -1.11794e+01 -1.74354e-01
       C  1.30190e+01 -7.49613e+00  6.41607e-02
       C  1.43958e+01 -7.46095e+00 -7.24545e-02
       C  1.22794e+01 -8.64258e+00 -2.22171e-01
       C  1.51406e+01 -8.65489e+00 -1.81049e-01
       C  1.30018e+01 -5.02780e+00 -1.34177e-01
       C  1.45111e+01 -4.98346e+00 -1.45208e-01
       C  1.23072e+01 -6.24555e+00 -1.66452e-01
       C  1.51602e+01 -6.27236e+00 -1.53048e-01
       C  1.29832e+01 -2.51107e+00 -6.17272e-02
       C  1.44804e+01 -2.50885e+00 -8.70669e-02
       C  1.23091e+01 -3.76795e+00 -1.47950e-01
       C  1.51635e+01 -3.68917e+00 -6.11325e-02
       C  5.75676e-02 -9.93544e+00 -2.33872e-01
       C  1.48049e+00 -9.97731e+00 -3.65197e-02
       C -6.68662e-01 -1.11483e+01 -2.14796e-01
       C  2.26294e+00 -1.12559e+01  2.75726e-02
       C  1.75858e-01 -7.43615e+00 -5.62955e-02
       C  1.55452e+00 -7.52220e+00 -9.39191e-02
       C -5.89837e-01 -8.73155e+00 -2.06942e-01
       C  2.34118e+00 -8.79108e+00  1.98018e-04
       C  1.76874e-01 -5.03099e+00 -2.54646e-02
       C  1.52285e+00 -4.92010e+00 -5.94204e-02
       C -5.11217e-01 -6.26227e+00 -9.62349e-02
       C  2.37152e+00 -6.25598e+00 -6.45964e-03
       C  1.01753e-01 -2.49471e+00  5.54109e-02
       C  1.51741e+00 -2.51505e+00 -4.48929e-03
       C -5.73337e-01 -3.76916e+00 -8.08679e-02
       C  2.28112e+00 -3.77753e+00 -1.64959e-01
       C  4.43126e+00 -2.09516e-02 -5.02442e-02
       C  5.80095e+00 -1.33902e-01 -2.29777e-02
       C  3.76006e+00 -1.25155e+00 -1.04006e-01
       C  6.56431e+00 -1.31705e+00 -3.20031e-02
       C  4.45848e+00 -1.73869e+01 -3.74990e-02
       C  5.84490e+00 -1.73598e+01 -7.22125e-02
       C  3.73141e+00 -1.84770e+01 -1.28298e-01
       C  6.54334e+00 -1.85286e+01  1.51723e-01
       C  4.47144e+00 -1.48749e+01  1.43670e-03
       C  5.83608e+00 -1.49479e+01 -1.20173e-03
       C  3.65010e+00 -1.60405e+01 -7.20780e-02
       C  6.61876e+00 -1.60881e+01  9.73132e-02
       C  4.43197e+00 -1.23954e+01 -5.48400e-02
       C  5.89927e+00 -1.24314e+01 -1.85028e-01
       C  3.65835e+00 -1.36981e+01 -9.70233e-02
       C  6.62095e+00 -1.36092e+01 -1.31795e-01
       C  8.72587e+00 -7.63852e-02 -6.38173e-02
       C  1.01716e+01  2.02944e-03 -4.85157e-02
       C  7.96699e+00 -1.33194e+00  2.97415e-02
       C  1.07769e+01 -1.31544e+00 -1.21254e-01
       C  8.69854e+00 -1.72923e+01  2.20902e-01
       C  1.01334e+01 -1.73429e+01  1.26815e-01
       C  7.95529e+00 -1.86914e+01  5.73270e-02
       C  1.08049e+01 -1.85843e+01 -7.40732e-02
       C  8.68208e+00 -1.49168e+01 -1.38841e-02
       C  1.02121e+01 -1.49140e+01 -4.43513e-02
       C  8.07137e+00 -1.61171e+01  4.67284e-02
       C  1.08371e+01 -1.61579e+01 -1.26281e-02
       C  8.76869e+00 -1.24059e+01  8.16003e-02
       C  1.01595e+01 -1.24477e+01  2.93870e-02
       C  8.02431e+00 -1.36892e+01 -1.13064e-02
       C  1.09063e+01 -1.36629e+01 -7.42767e-02
       C  1.29608e+01 -1.16331e-02 -1.04679e-01
       C  1.43354e+01 -2.35832e-02 -3.69471e-02
       C  1.23015e+01 -1.30853e+00 -1.97629e-02
       C  1.50604e+01 -1.26226e+00 -6.85864e-02
       C  1.29934e+01 -1.73795e+01 -1.04533e-01
       C  1.44335e+01 -1.73950e+01 -2.09437e-02
       C  1.21575e+01 -1.85584e+01 -1.49188e-01
       C  1.51261e+01 -1.85533e+01 -1.02055e-02
       C  1.30227e+01 -1.49669e+01 -2.46059e-01
       C  1.44249e+01 -1.48898e+01 -1.40386e-01
       C  1.22409e+01 -1.61652e+01 -1.35341e-01
       C  1.51424e+01 -1.61516e+01 -2.06978e-01
       C  1.30318e+01 -1.23873e+01  4.50960e-02
       C  1.43845e+01 -1.23677e+01 -1.32068e-01
       C  1.23034e+01 -1.36530e+01 -2.70918e-02
       C  1.50714e+01 -1.36736e+01 -9.07959e-02
       C  9.90268e-02 -7.41012e-02  6.30672e-02
       C  1.51307e+00 -3.84008e-02 -7.35383e-02
       C -6.13450e-01 -1.28738e+00 -1.16345e-02
       C  2.25549e+00 -1.27496e+00 -9.21091e-03
       C  1.26602e-01 -1.73468e+01 -2.42880e-01
       C  1.57238e+00 -1.73203e+01 -1.63817e-01
       C -6.25237e-01 -1.85497e+01 -8.20488e-02
       C  2.23787e+00 -1.86291e+01 -1.69406e-01
       C  9.80166e-02 -1.49125e+01 -1.21983e-01
       C  1.55343e+00 -1.49216e+01 -8.89099e-02
       C -6.01273e-01 -1.61577e+01 -1.68391e-01
       C  2.25398e+00 -1.61354e+01 -1.30450e-01
       C  1.91385e-01 -1.24558e+01 -1.23049e-01
       C  1.49282e+00 -1.24305e+01  4.43635e-02
       C -6.98611e-01 -1.37441e+01 -1.18758e-01
       C  2.32019e+00 -1.37317e+01  2.84825e-02
       H  5.89995e+00 -1.02907e+01  5.80039e+00
       C  5.48661e+00 -9.51549e+00  5.03496e+00
       C  5.86702e+00 -8.09757e+00  5.10038e+00
       H  7.06165e+00 -7.80866e+00  5.53642e+00
       C  4.98695e+00 -7.10845e+00  4.63609e+00
       H  5.26503e+00 -6.19259e+00  5.23281e+00
       C  4.04265e+00 -7.41077e+00  3.89487e+00
       H  3.22143e+00 -6.66052e+00  3.56525e+00
       C  3.69969e+00 -8.71242e+00  3.51117e+00
       H  2.73068e+00 -9.12455e+00  2.95823e+00
       C  4.52030e+00 -9.80395e+00  4.07133e+00
       H  4.02666e+00 -1.08624e+01  3.73704e+00
140
# CELL(abcABC):   17.14040    19.79200    30.00000    90.00000    90.00000    90.00000  Step:         100  Bead:       3 positions{angstrom}  cell{angstrom}
       C  4.38303e+00 -9.93042e+00 -1.20956e-01
       C  5.81602e+00 -9.88424e+00 -2.56104e-02
       C  3.72227e+00 -1.12150e+01 -1.32621e-01
       C  6.57841e+00 -1.11772e+01 -9.79330e-02
       C  4.42229e+00 -7.44540e+00 -1.01758e-01
       C  5.81368e+00 -7.43728e+00 -1.88108e-01
       C  3.68076e+00 -8.65568e+00 -1.19848e-02
       C  6.53947e+00 -8.70755e+00 -1.67224e-01
       C  4.40484e+00 -4.94470e+00  4.26715e-02
       C  5.79038e+00 -4.97559e+00 -1.76064e-01
       C  3.73560e+00 -6.19353e+00 -5.29919e-02
       C  6.55700e+00 -6.23009e+00 -1.62422e-01
       C  4.45832e+00 -2.49850e+00 -4.35201e-02
       C  5.88071e+00 -2.48699e+00 -9.01615e-02
       C  3.71423e+00 -3.81180e+00  6.34484e-03
       C  6.56394e+00 -3.75758e+00 -2.00308e-01
       C  8.74124e+00 -9.91523e+00 -1.09856e-01
       C  1.02318e+01 -9.82729e+00  5.56200e-02
       C  8.01807e+00 -1.11980e+01 -8.42483e-02
       C  1.08500e+01 -1.11181e+01  5.82932e-02
       C  8.63889e+00 -7.42732e+00 -2.60302e-01
       C  1.00839e+01 -7.41904e+00 -1.40420e-01
       C  7.90513e+00 -8.69378e+00 -5.93419e-02
       C  1.08699e+01 -8.64226e+00 -1.37477e-01
       C  8.70368e+00 -5.02894e+00 -8.90237e-02
       C  1.00861e+01 -4.91312e+00 -1.03292e-01
       C  7.99361e+00 -6.16959e+00 -2.62120e-01
       C  1.08355e+01 -6.25182e+00  6.32685e-03
       C  8.79369e+00 -2.51923e+00 -8.46194e-02
       C  1.01232e+01 -2.55448e+00 -3.78384e-02
       C  7.89568e+00 -3.72334e+00 -1.38775e-01
       C  1.08896e+01 -3.69642e+00 -1.25238e-01
       C  1.29763e+01 -9.93750e+00 -1.63495e-01
       C  1.44111e+01 -9.94436e+00 -2.25332e-01
       C  1.22023e+01 -1.11511e+01 -3.12122e-01
       C  1.51429e+01 -1.11531e+01 -1.51892e-01
       C  1.29582e+01 -7.52723e+00 -2.83232e-01
       C  1.43705e+01 -7.45105e+00 -3.54978e-01
       C  1.22595e+01 -8.67020e+00 -2.33156e-01
       C  1.50864e+01 -8.72950e+00 -1.84624e-01
       C  1.29692e+01 -5.00465e+00 -1.21596e-01
       C  1.44095e+01 -5.02313e+00 -5.70370e-02
       C  1.22217e+01 -6.22498e+00 -1.85460e-01
       C  1.51441e+01 -6.26971e+00 -1.82287e-01
       C  1.30945e+01 -2.47587e+00 -6.96704e-02
       C  1.44551e+01 -2.49730e+00 -3.05774e-02
       C  1.23171e+01 -3.80483e+00 -1.56760e-01
       C  1.51644e+01 -3.76257e+00 -1.16157e-02
       C  1.53461e-01 -1.00493e+01 -4.77694e-02
       C  1.47182e+00 -9.94069e+00 -3.49680e-02
       C -5.93387e-01 -1.11726e+01 -7.43798e-02
       C  2.28865e+00 -1.11226e+01 -1.43012e-01
       C  4.92798e-02 -7.46077e+00 -2.42349e-01
       C  1.66162e+00 -7.48885e+00 -2.73524e-01
       C -5.94529e-01 -8.83939e+00 -2.25699e-01
       C  2.29786e+00 -8.76039e+00 -7.64062e-02
       C  9.52415e-02 -5.06874e+00 -2.39399e-01
       C  1.58884e+00 -4.92699e+00 -2.84510e-01
       C -5.75678e-01 -6.29357e+00 -3.51720e-01
       C  2.35699e+00 -6.21017e+00 -8.96255e-02
       C  1.64510e-01 -2.51262e+00 -2.14756e-01
       C  1.60120e+00 -2.55017e+00 -1.34664e-01
       C -5.52294e-01 -3.81885e+00 -2.22456e-01
       C  2.27725e+00 -3.78995e+00 -7.13640e-02
       C  4.37098e+00 -1.98512e-02 -3.54894e-02
       C  5.86113e+00 -6.45299e-03 -9.46243e-02
       C  3.68249e+00 -1.30714e+00 -5.96022e-02
       C  6.62517e+00 -1.27442e+00 -1.94228e-01
       C  4.42531e+00 -1.74618e+01 -1.60436e-01
       C  5.84148e+00 -1.74090e+01  4.81700e-02
       C  3.67651e+00 -1.86610e+01 -2.34210e-02
       C  6.56837e+00 -1.86468e+01 -4.44944e-02
       C  4.42029e+00 -1.49403e+01 -6.14159e-02
       C  5.82301e+00 -1.49741e+01  6.59726e-02
       C  3.74640e+00 -1.61404e+01 -1.05233e-01
       C  6.62721e+00 -1.61977e+01  9.21660e-02
       C  4.40561e+00 -1.24637e+01 -4.92765e-02
       C  5.75840e+00 -1.25326e+01  2.43677e-02
       C  3.79154e+00 -1.36909e+01 -1.09325e-01
       C  6.49868e+00 -1.36477e+01  6.74951e-02
       C  8.75840e+00 -9.87387e-03 -6.56804e-03
       C  1.02074e+01 -7.56178e-02  5.40840e-02
       C  8.02057e+00 -1.22580e+00 -4.38195e-02
       C  1.09161e+01 -1.34520e+00  5.71792e-03
       C  8.73301e+00 -1.73794e+01 -4.85264e-02
       C  1.01448e+01 -1.73389e+01 -7.23572e-02
       C  8.02281e+00 -1.85761e+01  8.54627e-02
       C  1.08800e+01 -1.84425e+01 -4.34434e-02
       C  8.72055e+00 -1.49872e+01  1.72622e-01
       C  1.01834e+01 -1.49185e+01  9.07144e-02
       C  8.00194e+00 -1.61849e+01 -7.96483e-03
       C  1.09195e+01 -1.60685e+01 -1.12237e-01
       C  8.64811e+00 -1.24270e+01 -2.48575e-02
       C  1.00696e+01 -1.23878e+01  4.60393e-02
       C  8.01451e+00 -1.36004e+01  7.07202e-02
       C  1.08627e+01 -1.36591e+01  1.03739e-01
       C  1.29338e+01 -5.87012e-02 -1.22547e-01
       C  1.44648e+01 -9.24480e-02  6.88908e-02
       C  1.23112e+01 -1.29944e+00 -1.20849e-01
       C  1.51493e+01 -1.25874e+00 -2.63496e-03
       C  1.30091e+01 -1.73633e+01  3.87781e-02
       C  1.44918e+01 -1.74058e+01 -1.98371e-01
       C  1.23162e+01 -1.85824e+01  2.25402e-03
       C  1.50412e+01 -1.85024e+01 -8.41930e-02
       C  1.30436e+01 -1.48962e+01 -3.00039e-02
       C  1.45306e+01 -1.49114e+01 -5.61410e-02
       C  1.22851e+01 -1.61731e+01  8.37241e-02
       C  1.50918e+01 -1.61611e+01 -7.88074e-02
       C  1.29559e+01 -1.24162e+01 -1.98236e-01
       C  1.43465e+01 -1.23867e+01 -1.93700e-02
       C  1.23235e+01 -1.36394e+01 -6.01858e-02
       C  1.51207e+01 -1.36553e+01 -1.12657e-01
       C  1.65636e-01 -1.47352e-02 -2.40680e-02
       C  1.58336e+00  1.26518e-02 -2.30305e-02
       C -5.18013e-01 -1.29787e+00 -1.26482e-01
       C  2.27446e+00 -1.29282e+00 -7.22261e-02
       C  2.50374e-01 -1.73713e+01 -1.33870e-01
       C  1.60879e+00 -1.73874e+01  5.47361e-02
       C -5.91105e-01 -1.86142e+01 -9.29931e-02
       C  2.29538e+00 -1.86590e+01 -6.31455e-03
       C  2.54057e-01 -1.49463e+01 -2.08965e-01
       C  1.58234e+00 -1.49488e+01 -1.30869e-01
       C -6.19056e-01 -1.61259e+01 -1.25275e-01
       C  2.31125e+00 -1.61922e+01 -3.91773e-02
       C  1.48263e-01 -1.24491e+01 -6.27447e-02
       C  1.62617e+00 -1.24923e+01 -9.69135e-02
       C -6.06279e-01 -1.36783e+01 -1.81359e-01
       C  2.27573e+00 -1.36776e+01 -1.41353e-01
       H  6.03705e+00 -1.04726e+01  5.36278e+00
       C  5.34482e+00 -9.50901e+00  4.99102e+00
       C  5.85167e+00 -8.25582e+00  5.06064e+00
       H  6.83269e+00 -7.87042e+00  5.45650e+00
       C  5.14568e+00 -7.17238e+00  4.62128e+00
       H  5.68374e+00 -6.18139e+00  4.68085e+00
       C  4.01012e+00 -7.38684e+00  3.85371e+00
       H  3.27985e+00 -6.37439e+00  3.81657e+00
       C  3.48011e+00 -8.63749e+00  3.72984e+00
       H  2.57754e+00 -8.66113e+00  3.04857e+00
       C  4.17827e+00 -9.67821e+00  4.25040e+00
       H  3.84707e+00 -1.06637e+01  3.96516e+00
