140
# CELL(abcABC):   17.14040    19.79200    30.00000    90.00000    90.00000    90.00000  Step:           0  Bead:       6 positions{angstrom}  cell{angstrom}
       C  4.38087e+00 -9.94141e+00 -1.03728e-01
       C  5.77693e+00 -9.92670e+00 -1.33489e-01
       C  3.72008e+00 -1.11993e+01 -1.03635e-01
       C  6.60612e+00 -1.11541e+01 -2.15294e-01
       C  4.45511e+00 -7.52327e+00 -1.05376e-01
       C  5.88096e+00 -7.50037e+00 -1.16322e-01
       C  3.67593e+00 -8.81307e+00 -1.32555e-01
       C  6.57308e+00 -8.73332e+00 -2.41786e-01
       C  4.42111e+00 -5.03832e+00 -1.82596e-01
       C  5.86168e+00 -4.99416e+00 -2.13223e-01
       C  3.65079e+00 -6.24531e+00 -1.18132e-01
       C  6.51301e+00 -6.25227e+00 -1.56815e-01
       C  4.45104e+00 -2.50900e+00 -1.43681e-01
       C  5.86404e+00 -2.58194e+00 -2.88544e-01
       C  3.74438e+00 -3.85257e+00 -2.93300e-01
       C  6.56958e+00 -3.83505e+00 -2.33085e-01
       C  8.71461e+00 -9.92935e+00 -1.29262e-01
       C  1.01037e+01 -9.92140e+00 -8.43658e-02
       C  7.92026e+00 -1.12295e+01  7.65701e-02
       C  1.08874e+01 -1.11701e+01 -1.28614e-01
       C  8.75636e+00 -7.52878e+00 -2.15763e-01
       C  1.02122e+01 -7.40697e+00 -1.68725e-01
       C  7.94147e+00 -8.73882e+00 -1.78834e-01
       C  1.08487e+01 -8.73636e+00 -2.41982e-01
       C  8.64413e+00 -5.03332e+00 -3.70603e-02
       C  1.01600e+01 -4.98572e+00 -1.70890e-01
       C  8.08018e+00 -6.28148e+00 -1.82150e-01
       C  1.08519e+01 -6.19215e+00 -1.69636e-01
       C  8.67925e+00 -2.47303e+00 -1.65997e-01
       C  1.00833e+01 -2.58496e+00 -1.91256e-01
       C  7.91465e+00 -3.88673e+00 -3.07563e-01
       C  1.09158e+01 -3.72365e+00  1.89812e-03
       C  1.29782e+01 -9.89589e+00 -1.50934e-01
       C  1.44239e+01 -9.86888e+00 -1.45941e-01
       C  1.23582e+01 -1.11521e+01  8.92337e-03
       C  1.50960e+01 -1.11456e+01 -1.91338e-01
       C  1.30246e+01 -7.51073e+00  4.39742e-02
       C  1.44203e+01 -7.46712e+00 -4.25998e-02
       C  1.22906e+01 -8.60383e+00 -2.25935e-01
       C  1.51242e+01 -8.65467e+00 -1.96615e-01
       C  1.29852e+01 -5.04403e+00 -1.44738e-01
       C  1.44456e+01 -5.01774e+00 -1.21517e-01
       C  1.22899e+01 -6.19186e+00 -1.58964e-01
       C  1.51460e+01 -6.26376e+00 -1.88387e-01
       C  1.30330e+01 -2.51898e+00 -1.31607e-01
       C  1.44603e+01 -2.46025e+00 -1.04175e-01
       C  1.23168e+01 -3.73547e+00 -7.01636e-02
       C  1.51523e+01 -3.69352e+00 -1.14174e-01
       C  2.76811e-02 -9.94865e+00 -2.41494e-01
       C  1.47183e+00 -9.98125e+00 -4.96498e-02
       C -6.61339e-01 -1.12166e+01 -1.82654e-01
       C  2.26878e+00 -1.12865e+01 -9.54734e-04
       C  1.47331e-01 -7.46192e+00 -4.44695e-02
       C  1.53391e+00 -7.49714e+00 -6.45729e-02
       C -5.36802e-01 -8.71010e+00 -2.22607e-01
       C  2.31302e+00 -8.79899e+00  1.14203e-02
       C  1.88551e-01 -5.02665e+00 -1.46820e-02
       C  1.60043e+00 -4.93753e+00 -9.39976e-02
       C -5.10666e-01 -6.23815e+00 -1.43788e-01
       C  2.35018e+00 -6.24271e+00  3.12191e-03
       C  1.55830e-01 -2.43902e+00  1.28496e-02
       C  1.54406e+00 -2.53567e+00  2.69900e-02
       C -6.53263e-01 -3.73325e+00 -1.12868e-01
       C  2.27787e+00 -3.76754e+00 -1.75535e-01
       C  4.41650e+00 -3.16855e-02 -5.94389e-02
       C  5.81438e+00 -1.25790e-01 -1.45803e-02
       C  3.77766e+00 -1.28848e+00 -8.47211e-02
       C  6.57765e+00 -1.33127e+00 -2.11479e-02
       C  4.47168e+00 -1.73109e+01  4.12328e-03
       C  5.87998e+00 -1.73529e+01 -3.53682e-02
       C  3.75630e+00 -1.85526e+01 -1.75465e-01
       C  6.50573e+00 -1.85603e+01  1.44825e-01
       C  4.43634e+00 -1.49403e+01 -1.20413e-02
       C  5.83869e+00 -1.49661e+01 -4.99680e-02
       C  3.63654e+00 -1.59988e+01 -6.12100e-02
       C  6.60737e+00 -1.61017e+01  8.57202e-02
       C  4.42240e+00 -1.24364e+01 -3.62764e-02
       C  5.85940e+00 -1.24479e+01 -1.98921e-01
       C  3.65955e+00 -1.37021e+01 -7.95339e-02
       C  6.57390e+00 -1.36416e+01 -9.67900e-02
       C  8.73265e+00 -5.57477e-02 -4.76991e-02
       C  1.01367e+01 -1.81147e-02 -5.42679e-02
       C  7.98151e+00 -1.32124e+00  7.61672e-03
       C  1.08329e+01 -1.34994e+00 -1.39551e-01
       C  8.65382e+00 -1.73281e+01  2.19261e-01
       C  1.01614e+01 -1.73507e+01  1.88294e-01
       C  7.97292e+00 -1.86444e+01  5.03357e-02
       C  1.07688e+01 -1.85574e+01 -1.04286e-01
       C  8.70306e+00 -1.48532e+01  4.37244e-02
       C  1.02277e+01 -1.48658e+01 -2.67469e-02
       C  7.99573e+00 -1.61238e+01  2.78778e-02
       C  1.08145e+01 -1.61822e+01 -2.15867e-02
       C  8.78140e+00 -1.23634e+01  9.24889e-02
       C  1.02413e+01 -1.24373e+01 -4.27157e-02
       C  8.01278e+00 -1.37033e+01 -3.47257e-02
       C  1.08837e+01 -1.36585e+01 -2.24540e-02
       C  1.29106e+01 -3.35796e-02 -1.49312e-01
       C  1.43034e+01 -3.69862e-02  6.17577e-03
       C  1.22781e+01 -1.25070e+00 -2.71221e-02
       C  1.50633e+01 -1.20816e+00 -8.48236e-02
       C  1.29797e+01 -1.74014e+01 -1.29820e-01
       C  1.44885e+01 -1.73684e+01 -3.29382e-02
       C  1.22170e+01 -1.84999e+01 -1.81392e-01
       C  1.51422e+01 -1.85542e+01  7.52961e-02
       C  1.29958e+01 -1.49801e+01 -2.00951e-01
       C  1.44173e+01 -1.49134e+01 -1.52244e-01
       C  1.23291e+01 -1.61146e+01 -8.44923e-02
       C  1.51242e+01 -1.61690e+01 -1.95759e-01
       C  1.29907e+01 -1.23710e+01  7.53516e-02
       C  1.43495e+01 -1.24010e+01 -1.71181e-01
       C  1.23498e+01 -1.36694e+01 -3.60577e-02
       C  1.50843e+01 -1.36783e+01 -6.72269e-02
       C  9.06468e-02 -1.89267e-02  3.62414e-02
       C  1.51639e+00 -4.88027e-02 -4.38081e-02
       C -6.39918e-01 -1.31203e+00 -1.39121e-02
       C  2.33583e+00 -1.33266e+00 -1.95398e-02
       C  1.20699e-01 -1.73380e+01 -2.70748e-01
       C  1.55343e+00 -1.73349e+01 -1.25588e-01
       C -5.73203e-01 -1.85500e+01 -7.79325e-02
       C  2.28282e+00 -1.86537e+01 -2.00427e-01
       C  5.42112e-02 -1.49168e+01 -1.23337e-01
       C  1.52744e+00 -1.49637e+01 -7.71195e-02
       C -5.42802e-01 -1.61669e+01 -1.11472e-01
       C  2.29787e+00 -1.60944e+01 -2.00953e-01
       C  1.80801e-01 -1.24118e+01 -1.19105e-01
       C  1.52983e+00 -1.24473e+01  3.11924e-02
       C -6.50204e-01 -1.37307e+01 -1.54543e-01
       C  2.32340e+00 -1.37294e+01  1.52442e-02
       H  5.95646e+00 -1.02114e+01  5.66264e+00
       C  5.49102e+00 -9.46319e+00  5.01624e+00
       C  5.85629e+00 -8.08573e+00  5.11089e+00
       H  6.94302e+00 -7.77126e+00  5.36669e+00
       C  5.06179e+00 -7.12543e+00  4.59674e+00
       H  5.38651e+00 -6.23813e+00  5.14416e+00
       C  4.04199e+00 -7.43219e+00  3.84916e+00
       H  3.25707e+00 -6.76989e+00  3.56985e+00
       C  3.72526e+00 -8.72131e+00  3.56316e+00
       H  2.79995e+00 -9.17216e+00  2.88349e+00
       C  4.46775e+00 -9.77712e+00  4.13302e+00
       H  4.18642e+00 -1.08969e+01  3.57463e+00
140
# CELL(abcABC):   17.14040    19.79200    30.00000    90.00000    90.00000    90.00000  Step:         100  Bead:       6 positions{angstrom}  cell{angstrom}
       C  4.37764e+00 -9.92449e+00 -9.29848e-02
       C  5.83858e+00 -9.92249e+00  1.95086e-02
       C  3.77195e+00 -1.12292e+01 -1.35119e-01
       C  6.57854e+00 -1.12405e+01 -1.49069e-01
       C  4.39438e+00 -7.46103e+00 -3.71708e-02
       C  5.89228e+00 -7.47632e+00 -2.14215e-01
       C  3.66758e+00 -8.69543e+00 -5.69493e-02
       C  6.51125e+00 -8.68295e+00 -1.89070e-01
       C  4.39732e+00 -4.98518e+00  5.71048e-02
       C  5.85966e+00 -4.95607e+00 -1.49254e-01
       C  3.73410e+00 -6.26481e+00  2.52201e-02
       C  6.60534e+00 -6.25677e+00 -1.79450e-01
       C  4.45289e+00 -2.47252e+00 -5.75501e-02
       C  5.87384e+00 -2.49142e+00 -1.20325e-01
       C  3.69650e+00 -3.75836e+00  4.26285e-02
       C  6.58108e+00 -3.81256e+00 -2.12070e-01
       C  8.73603e+00 -9.90211e+00 -7.81666e-02
       C  1.02254e+01 -9.86602e+00  2.08653e-02
       C  7.97577e+00 -1.11689e+01 -7.41634e-02
       C  1.08337e+01 -1.11304e+01  1.70915e-02
       C  8.64671e+00 -7.47187e+00 -2.40095e-01
       C  1.01277e+01 -7.40996e+00 -9.22461e-02
       C  7.93988e+00 -8.71156e+00 -6.26735e-02
       C  1.09466e+01 -8.67975e+00 -5.87763e-02
       C  8.69165e+00 -5.01713e+00 -1.49750e-01
       C  1.00942e+01 -4.91616e+00 -9.00293e-02
       C  7.98916e+00 -6.15535e+00 -2.66592e-01
       C  1.07861e+01 -6.20113e+00 -5.86282e-02
       C  8.75025e+00 -2.52225e+00 -8.58725e-02
       C  1.01203e+01 -2.56780e+00 -2.39989e-02
       C  7.93256e+00 -3.74118e+00 -2.23225e-01
       C  1.09098e+01 -3.70616e+00 -6.72167e-02
       C  1.29832e+01 -9.92995e+00 -1.79313e-01
       C  1.43475e+01 -9.92336e+00 -2.00343e-01
       C  1.22641e+01 -1.12080e+01 -2.77024e-01
       C  1.51160e+01 -1.11399e+01 -1.17686e-01
       C  1.29297e+01 -7.51581e+00 -3.04158e-01
       C  1.44260e+01 -7.48773e+00 -3.97305e-01
       C  1.21999e+01 -8.68037e+00 -2.56526e-01
       C  1.51427e+01 -8.74228e+00 -2.26666e-01
       C  1.30342e+01 -4.99626e+00 -1.34284e-01
       C  1.44577e+01 -5.01861e+00 -8.08470e-02
       C  1.22273e+01 -6.25631e+00 -1.78514e-01
       C  1.51310e+01 -6.26689e+00 -1.42990e-01
       C  1.30755e+01 -2.46464e+00 -4.89803e-02
       C  1.44655e+01 -2.46185e+00 -5.62353e-02
       C  1.23357e+01 -3.76037e+00 -1.72134e-01
       C  1.52154e+01 -3.77564e+00 -6.02150e-02
       C  1.49531e-01 -1.00742e+01 -6.42310e-02
       C  1.47844e+00 -9.92840e+00 -1.91902e-02
       C -5.58107e-01 -1.11734e+01 -2.19878e-02
       C  2.27889e+00 -1.11614e+01 -1.32379e-01
       C  1.01506e-01 -7.41244e+00 -2.47856e-01
       C  1.62268e+00 -7.50186e+00 -2.76858e-01
       C -6.03868e-01 -8.82479e+00 -2.38161e-01
       C  2.26505e+00 -8.76594e+00 -1.11113e-01
       C  1.12715e-01 -5.02269e+00 -2.32316e-01
       C  1.59146e+00 -4.97071e+00 -2.37621e-01
       C -5.87741e-01 -6.23601e+00 -3.26591e-01
       C  2.30770e+00 -6.19484e+00 -7.92746e-02
       C  1.50895e-01 -2.53777e+00 -1.82457e-01
       C  1.62937e+00 -2.51737e+00 -1.45791e-01
       C -5.89099e-01 -3.86132e+00 -2.13076e-01
       C  2.25612e+00 -3.79770e+00 -7.34032e-02
       C  4.38648e+00 -9.73690e-02 -3.98453e-02
       C  5.77843e+00 -3.96028e-02 -1.14800e-01
       C  3.65375e+00 -1.33663e+00 -4.15829e-02
       C  6.55911e+00 -1.31045e+00 -1.59008e-01
       C  4.43061e+00 -1.74459e+01 -1.01579e-01
       C  5.90054e+00 -1.73952e+01  6.78598e-02
       C  3.66802e+00 -1.86598e+01  3.08086e-02
       C  6.59710e+00 -1.86685e+01 -3.08577e-02
       C  4.43029e+00 -1.49223e+01 -3.49230e-02
       C  5.84974e+00 -1.49668e+01  1.57601e-02
       C  3.70746e+00 -1.61714e+01 -1.21731e-01
       C  6.61275e+00 -1.61949e+01  1.21765e-01
       C  4.39125e+00 -1.24870e+01 -8.77978e-03
       C  5.76325e+00 -1.25401e+01  2.66937e-02
       C  3.75776e+00 -1.37209e+01 -9.67619e-02
       C  6.48586e+00 -1.36415e+01  1.11446e-01
       C  8.74295e+00 -5.42364e-02  1.15950e-02
       C  1.02009e+01 -2.45946e-02  4.75025e-02
       C  7.99321e+00 -1.20972e+00 -6.74124e-02
       C  1.09204e+01 -1.32235e+00  2.00095e-02
       C  8.75500e+00 -1.74229e+01 -8.98720e-02
       C  1.01790e+01 -1.73288e+01 -2.38367e-02
       C  7.98910e+00 -1.85768e+01  6.43263e-02
       C  1.08808e+01 -1.85175e+01 -8.26897e-04
       C  8.69825e+00 -1.49636e+01  1.38804e-01
       C  1.01495e+01 -1.48866e+01  1.07857e-01
       C  7.99417e+00 -1.61847e+01  2.11239e-02
       C  1.09140e+01 -1.60255e+01 -1.29689e-01
       C  8.60940e+00 -1.23947e+01 -6.07835e-03
       C  1.00590e+01 -1.23968e+01  4.53508e-02
       C  7.99959e+00 -1.36299e+01  8.69683e-02
       C  1.08852e+01 -1.36639e+01  6.84158e-02
       C  1.30013e+01 -1.01125e-01 -1.32075e-01
       C  1.44651e+01 -3.48386e-02  6.64812e-02
       C  1.23125e+01 -1.30151e+00 -1.30980e-01
       C  1.51415e+01 -1.29953e+00  1.13218e-01
       C  1.30277e+01 -1.74040e+01  4.81637e-02
       C  1.45009e+01 -1.73779e+01 -1.65873e-01
       C  1.23174e+01 -1.85888e+01  9.99645e-04
       C  1.51014e+01 -1.85335e+01 -1.01897e-01
       C  1.30305e+01 -1.49207e+01 -1.60410e-02
       C  1.44828e+01 -1.49195e+01 -1.22106e-01
       C  1.22645e+01 -1.61901e+01  1.12306e-01
       C  1.51426e+01 -1.61341e+01 -1.37576e-01
       C  1.29650e+01 -1.24053e+01 -1.95890e-01
       C  1.44174e+01 -1.23635e+01 -3.00459e-02
       C  1.22898e+01 -1.36816e+01 -7.66718e-02
       C  1.50975e+01 -1.36330e+01 -9.75019e-02
       C  1.48301e-01  2.07085e-03 -4.79912e-02
       C  1.62742e+00  2.28161e-02 -3.29953e-02
       C -5.01476e-01 -1.32111e+00 -1.14370e-01
       C  2.24227e+00 -1.28379e+00 -7.37200e-02
       C  2.15714e-01 -1.73509e+01 -8.87374e-02
       C  1.58828e+00 -1.74028e+01  4.22453e-02
       C -5.77373e-01 -1.86235e+01 -1.37185e-01
       C  2.25604e+00 -1.86779e+01 -3.28754e-03
       C  2.06291e-01 -1.48838e+01 -1.71345e-01
       C  1.60611e+00 -1.50138e+01 -9.99005e-02
       C -6.03777e-01 -1.61480e+01 -8.27667e-02
       C  2.32309e+00 -1.61948e+01 -4.45303e-02
       C  7.90373e-02 -1.24581e+01 -4.83358e-02
       C  1.57798e+00 -1.25149e+01 -1.16621e-01
       C -6.17881e-01 -1.36436e+01 -1.71679e-01
       C  2.25496e+00 -1.36674e+01 -1.82287e-01
       H  5.96219e+00 -1.04272e+01  5.40086e+00
       C  5.35401e+00 -9.47180e+00  4.96416e+00
       C  5.89392e+00 -8.24063e+00  5.08625e+00
       H  6.81200e+00 -7.97961e+00  5.42087e+00
       C  5.13136e+00 -7.17129e+00  4.60152e+00
       H  5.62209e+00 -6.32887e+00  4.79090e+00
       C  3.98831e+00 -7.39895e+00  3.91135e+00
       H  3.29324e+00 -6.47505e+00  3.86262e+00
       C  3.53843e+00 -8.67116e+00  3.73108e+00
       H  2.55677e+00 -8.52130e+00  3.13904e+00
       C  4.17184e+00 -9.64495e+00  4.24189e+00
       H  3.82480e+00 -1.05918e+01  4.12552e+00
