140
# CELL(abcABC):   17.14040    19.79200    30.00000    90.00000    90.00000    90.00000  Step:           0  Bead:      17 positions{angstrom}  cell{angstrom}
       C  4.49535e+00 -9.99374e+00 -1.25535e-01
       C  5.85400e+00 -1.00236e+01 -1.43797e-01
       C  3.69091e+00 -1.12347e+01 -8.48887e-02
       C  6.63233e+00 -1.11687e+01 -2.20213e-01
       C  4.34980e+00 -7.50094e+00 -1.09584e-01
       C  5.88303e+00 -7.53843e+00 -1.85346e-01
       C  3.73810e+00 -8.71506e+00 -2.60301e-02
       C  6.59911e+00 -8.74621e+00 -2.28346e-01
       C  4.46882e+00 -5.00753e+00 -1.25752e-01
       C  5.86101e+00 -5.00604e+00 -1.95875e-01
       C  3.72726e+00 -6.23164e+00 -1.78828e-01
       C  6.58989e+00 -6.28702e+00 -1.84686e-01
       C  4.46638e+00 -2.53538e+00 -1.62822e-01
       C  5.84963e+00 -2.54810e+00 -2.89414e-01
       C  3.74132e+00 -3.74987e+00 -2.69204e-01
       C  6.58549e+00 -3.74613e+00 -2.00248e-01
       C  8.74040e+00 -9.98809e+00 -1.34945e-01
       C  1.01169e+01 -9.94553e+00 -1.50922e-01
       C  8.08481e+00 -1.11825e+01 -1.44763e-02
       C  1.08746e+01 -1.11708e+01 -1.30397e-01
       C  8.76345e+00 -7.49805e+00 -1.20676e-01
       C  1.01593e+01 -7.47630e+00 -1.06537e-01
       C  7.96403e+00 -8.67188e+00 -1.43153e-01
       C  1.09107e+01 -8.71021e+00 -2.57887e-01
       C  8.73486e+00 -4.94224e+00 -4.86768e-02
       C  1.00892e+01 -4.98237e+00 -1.80533e-01
       C  8.03371e+00 -6.29403e+00 -1.56451e-01
       C  1.07973e+01 -6.22707e+00 -2.50135e-01
       C  8.69523e+00 -2.53863e+00 -2.36463e-01
       C  1.01961e+01 -2.55381e+00 -2.49445e-01
       C  7.99164e+00 -3.77655e+00 -3.15574e-01
       C  1.08655e+01 -3.77902e+00 -3.86168e-02
       C  1.29512e+01 -9.88604e+00 -1.22337e-01
       C  1.44179e+01 -9.88466e+00 -1.82402e-01
       C  1.22621e+01 -1.10883e+01 -1.20893e-02
       C  1.50996e+01 -1.11690e+01 -1.71076e-01
       C  1.30250e+01 -7.45253e+00 -2.04151e-03
       C  1.44621e+01 -7.38486e+00 -1.48641e-01
       C  1.22607e+01 -8.65367e+00 -1.31422e-01
       C  1.51388e+01 -8.67673e+00 -1.73154e-01
       C  1.29772e+01 -4.93609e+00 -1.29164e-01
       C  1.43606e+01 -4.95718e+00 -1.66630e-01
       C  1.22839e+01 -6.20207e+00 -1.29114e-01
       C  1.51653e+01 -6.27035e+00 -1.69775e-01
       C  1.30056e+01 -2.51410e+00 -5.49314e-04
       C  1.44298e+01 -2.46604e+00 -1.00202e-01
       C  1.23191e+01 -3.79146e+00 -1.48149e-01
       C  1.50739e+01 -3.74130e+00 -1.14284e-01
       C  1.47309e-01 -9.98618e+00 -2.01504e-01
       C  1.57751e+00 -1.00409e+01 -3.00859e-02
       C -6.00790e-01 -1.12524e+01 -2.17705e-01
       C  2.36173e+00 -1.12944e+01 -3.24157e-02
       C  1.97116e-01 -7.45778e+00 -7.62615e-02
       C  1.59238e+00 -7.56296e+00 -6.40054e-02
       C -6.42809e-01 -8.66374e+00 -2.10132e-01
       C  2.20584e+00 -8.79269e+00 -7.98538e-02
       C  1.03731e-01 -4.97810e+00 -1.20540e-01
       C  1.59925e+00 -4.97970e+00 -4.09046e-02
       C -6.16507e-01 -6.20680e+00 -1.59169e-01
       C  2.20611e+00 -6.29519e+00  1.59470e-02
       C  8.48848e-02 -2.61196e+00  3.57902e-02
       C  1.57680e+00 -2.58304e+00  4.66367e-02
       C -5.45898e-01 -3.76448e+00 -1.29505e-01
       C  2.25938e+00 -3.73179e+00 -1.27771e-01
       C  4.35148e+00 -4.68801e-02  2.75540e-02
       C  5.85789e+00 -5.94387e-02  2.78809e-02
       C  3.70916e+00 -1.36947e+00 -6.55237e-02
       C  6.53307e+00 -1.31585e+00 -6.00334e-02
       C  4.42255e+00 -1.72901e+01 -5.58363e-02
       C  5.87380e+00 -1.74190e+01 -9.51947e-03
       C  3.76060e+00 -1.86804e+01 -1.27345e-01
       C  6.47279e+00 -1.86038e+01  1.92661e-01
       C  4.44696e+00 -1.49019e+01 -1.49994e-02
       C  5.85685e+00 -1.48566e+01 -2.17846e-03
       C  3.71892e+00 -1.61727e+01 -1.76578e-02
       C  6.56080e+00 -1.61110e+01 -2.10731e-03
       C  4.47095e+00 -1.24084e+01 -3.20310e-02
       C  5.81850e+00 -1.23525e+01 -1.22644e-01
       C  3.64758e+00 -1.36973e+01 -2.57107e-02
       C  6.57397e+00 -1.37028e+01 -1.55266e-01
       C  8.73479e+00  2.40082e-02 -3.88151e-02
       C  1.01163e+01 -4.01399e-02 -8.39903e-02
       C  8.10541e+00 -1.28737e+00 -7.16493e-03
       C  1.08443e+01 -1.32787e+00 -1.51014e-01
       C  8.69313e+00 -1.74014e+01  2.07497e-01
       C  1.01537e+01 -1.73590e+01  2.35246e-01
       C  7.97713e+00 -1.86444e+01 -1.21297e-02
       C  1.08499e+01 -1.85760e+01 -6.77976e-02
       C  8.68539e+00 -1.48578e+01 -6.17024e-03
       C  1.01459e+01 -1.48562e+01 -9.03139e-02
       C  7.97796e+00 -1.61113e+01  1.46836e-01
       C  1.08825e+01 -1.60637e+01 -1.73839e-02
       C  8.74538e+00 -1.24393e+01  6.63591e-02
       C  1.02072e+01 -1.24366e+01 -5.63514e-02
       C  8.02047e+00 -1.36530e+01  1.15802e-02
       C  1.09415e+01 -1.36469e+01  1.01526e-02
       C  1.29109e+01 -1.78212e-02 -1.98788e-01
       C  1.42692e+01 -5.58358e-02 -2.58375e-02
       C  1.22278e+01 -1.30078e+00  6.63565e-03
       C  1.51658e+01 -1.23049e+00 -1.11353e-01
       C  1.30187e+01 -1.74090e+01 -8.36275e-02
       C  1.44137e+01 -1.73426e+01 -7.72439e-02
       C  1.22521e+01 -1.85523e+01 -1.40847e-01
       C  1.50925e+01 -1.85419e+01  7.27449e-02
       C  1.29741e+01 -1.49193e+01 -2.12958e-01
       C  1.44448e+01 -1.48634e+01 -1.14121e-01
       C  1.22287e+01 -1.60359e+01 -1.75190e-01
       C  1.51970e+01 -1.61087e+01 -2.14585e-01
       C  1.29925e+01 -1.24040e+01 -7.44747e-02
       C  1.44844e+01 -1.23217e+01 -9.66583e-02
       C  1.23449e+01 -1.36389e+01 -2.04389e-02
       C  1.50822e+01 -1.36628e+01 -8.83994e-02
       C  1.21966e-01 -3.47605e-02  4.51712e-02
       C  1.56914e+00 -5.68374e-02 -3.59171e-02
       C -5.86083e-01 -1.28670e+00  5.65521e-03
       C  2.26309e+00 -1.32095e+00 -9.18052e-02
       C  1.99995e-01 -1.73364e+01 -2.48645e-01
       C  1.63001e+00 -1.73120e+01 -1.89544e-01
       C -5.51747e-01 -1.86266e+01 -1.01172e-01
       C  2.31890e+00 -1.86202e+01 -2.14640e-01
       C  5.02000e-02 -1.48672e+01 -1.51530e-01
       C  1.52920e+00 -1.49180e+01 -1.80652e-01
       C -5.73768e-01 -1.61574e+01 -2.27166e-01
       C  2.28704e+00 -1.60740e+01 -1.53511e-01
       C  9.55212e-02 -1.24015e+01 -7.03147e-02
       C  1.59157e+00 -1.24719e+01  4.29933e-02
       C -5.96070e-01 -1.36745e+01 -1.05319e-01
       C  2.25582e+00 -1.36296e+01  2.11852e-03
       H  5.81473e+00 -1.04165e+01  5.57074e+00
       C  5.40223e+00 -9.42673e+00  4.91876e+00
       C  5.85144e+00 -8.10634e+00  5.15958e+00
       H  6.79110e+00 -7.63725e+00  5.61980e+00
       C  5.03234e+00 -7.16362e+00  4.63566e+00
       H  5.22250e+00 -6.17065e+00  4.89221e+00
       C  3.99739e+00 -7.43179e+00  3.88261e+00
       H  3.21485e+00 -6.50284e+00  3.44240e+00
       C  3.76392e+00 -8.75204e+00  3.50755e+00
       H  2.95038e+00 -8.98533e+00  2.87550e+00
       C  4.46893e+00 -9.83975e+00  4.01465e+00
       H  4.27622e+00 -1.09719e+01  3.74302e+00
140
# CELL(abcABC):   17.14040    19.79200    30.00000    90.00000    90.00000    90.00000  Step:         100  Bead:      17 positions{angstrom}  cell{angstrom}
       C  4.42312e+00 -1.00006e+01 -4.84854e-02
       C  5.80704e+00 -9.94548e+00 -5.77229e-02
       C  3.69852e+00 -1.12680e+01 -1.33278e-01
       C  6.47332e+00 -1.11927e+01 -2.10672e-02
       C  4.42733e+00 -7.44476e+00  2.36750e-02
       C  5.87546e+00 -7.54428e+00 -9.37734e-02
       C  3.65126e+00 -8.78721e+00 -7.95105e-02
       C  6.55195e+00 -8.73340e+00 -1.57664e-01
       C  4.47287e+00 -5.05842e+00  4.24524e-02
       C  5.83350e+00 -5.06880e+00 -2.07702e-01
       C  3.74333e+00 -6.19809e+00 -3.82379e-02
       C  6.59504e+00 -6.24889e+00 -1.25834e-01
       C  4.35729e+00 -2.52746e+00 -1.20605e-01
       C  5.84349e+00 -2.55025e+00 -6.64813e-02
       C  3.68961e+00 -3.77520e+00 -1.74369e-02
       C  6.53277e+00 -3.78790e+00 -1.19779e-01
       C  8.63895e+00 -9.88790e+00 -1.23334e-01
       C  1.00855e+01 -9.92902e+00 -2.52149e-02
       C  7.93737e+00 -1.10989e+01 -6.69040e-02
       C  1.08499e+01 -1.11145e+01  1.00366e-01
       C  8.73282e+00 -7.48972e+00 -3.16863e-01
       C  1.01139e+01 -7.54857e+00 -1.44777e-01
       C  7.98145e+00 -8.72829e+00 -1.30042e-01
       C  1.08485e+01 -8.66792e+00 -1.12062e-01
       C  8.68310e+00 -4.96353e+00 -1.61747e-01
       C  1.01876e+01 -4.96278e+00 -1.24559e-01
       C  8.00885e+00 -6.20836e+00 -2.95696e-01
       C  1.08591e+01 -6.22021e+00 -1.29501e-01
       C  8.66722e+00 -2.46162e+00  2.11476e-03
       C  1.01756e+01 -2.43643e+00 -6.74884e-02
       C  8.01441e+00 -3.70878e+00 -2.23305e-01
       C  1.08712e+01 -3.66729e+00 -1.11332e-01
       C  1.29174e+01 -9.90127e+00 -1.47492e-01
       C  1.43295e+01 -9.94561e+00 -2.32864e-01
       C  1.22981e+01 -1.11979e+01 -1.96227e-01
       C  1.50728e+01 -1.11592e+01 -1.14053e-01
       C  1.29543e+01 -7.50825e+00 -3.63050e-01
       C  1.44746e+01 -7.49860e+00 -4.02521e-01
       C  1.22715e+01 -8.71439e+00 -2.58636e-01
       C  1.51670e+01 -8.71383e+00 -1.98515e-01
       C  1.31038e+01 -4.98575e+00 -1.28858e-01
       C  1.44228e+01 -5.09526e+00 -1.07240e-01
       C  1.22899e+01 -6.24946e+00 -1.91270e-01
       C  1.51487e+01 -6.29701e+00 -2.24626e-01
       C  1.30169e+01 -2.50155e+00 -7.36205e-02
       C  1.44160e+01 -2.50801e+00 -2.14183e-02
       C  1.23456e+01 -3.70907e+00 -1.26734e-01
       C  1.51253e+01 -3.72199e+00 -1.01643e-01
       C  9.62726e-02 -9.91459e+00 -4.58017e-02
       C  1.58847e+00 -1.00329e+01 -5.99656e-02
       C -5.96277e-01 -1.12542e+01 -5.21167e-02
       C  2.30200e+00 -1.12074e+01 -2.23972e-01
       C  9.07601e-02 -7.54227e+00 -2.32216e-01
       C  1.56587e+00 -7.46203e+00 -2.88899e-01
       C -6.09393e-01 -8.78631e+00 -1.64074e-01
       C  2.31796e+00 -8.76046e+00 -9.40940e-02
       C  2.48116e-01 -5.01336e+00 -2.64229e-01
       C  1.59140e+00 -5.00750e+00 -1.59801e-01
       C -5.98920e-01 -6.24243e+00 -3.00973e-01
       C  2.26849e+00 -6.16127e+00 -1.03372e-01
       C  1.23832e-01 -2.56188e+00 -1.76363e-01
       C  1.55867e+00 -2.55216e+00 -7.18265e-02
       C -5.53523e-01 -3.71218e+00 -2.04533e-01
       C  2.23991e+00 -3.82528e+00 -7.73216e-02
       C  4.44855e+00 -1.03222e-01 -3.76836e-02
       C  5.75915e+00  2.05842e-03 -1.92933e-01
       C  3.68482e+00 -1.32755e+00 -4.23839e-02
       C  6.57562e+00 -1.35018e+00 -1.39967e-01
       C  4.43113e+00 -1.74628e+01 -1.55711e-01
       C  5.89452e+00 -1.74267e+01  2.93166e-02
       C  3.75924e+00 -1.87064e+01  3.79876e-02
       C  6.60949e+00 -1.85758e+01 -7.85414e-03
       C  4.51200e+00 -1.49903e+01 -7.49192e-02
       C  5.82313e+00 -1.48707e+01  1.49228e-01
       C  3.77356e+00 -1.61284e+01 -1.35883e-01
       C  6.51709e+00 -1.61560e+01  1.49540e-01
       C  4.31725e+00 -1.24992e+01 -4.76324e-02
       C  5.82785e+00 -1.24138e+01 -8.63570e-03
       C  3.74723e+00 -1.37544e+01 -1.54222e-01
       C  6.52827e+00 -1.37074e+01  1.24151e-01
       C  8.72865e+00 -8.31915e-02  4.82309e-02
       C  1.02275e+01 -1.47074e-03  3.33740e-02
       C  8.02956e+00 -1.21025e+00 -1.48098e-01
       C  1.08555e+01 -1.26764e+00  1.26149e-02
       C  8.69577e+00 -1.73543e+01 -8.77735e-02
       C  1.02177e+01 -1.73580e+01 -1.54397e-01
       C  8.08189e+00 -1.86624e+01  5.71369e-02
       C  1.09260e+01 -1.86182e+01 -3.66889e-02
       C  8.67798e+00 -1.48936e+01  8.37822e-02
       C  1.01351e+01 -1.48679e+01  7.63278e-02
       C  8.05019e+00 -1.61284e+01  3.58368e-02
       C  1.08238e+01 -1.61280e+01 -1.12881e-01
       C  8.63791e+00 -1.23665e+01 -8.46868e-02
       C  1.00833e+01 -1.24421e+01 -1.74863e-02
       C  7.96853e+00 -1.35635e+01  7.49477e-02
       C  1.09119e+01 -1.36535e+01  1.07572e-02
       C  1.30690e+01  2.70141e-02 -9.44664e-02
       C  1.43709e+01 -6.74542e-02 -1.75412e-02
       C  1.23250e+01 -1.27926e+00 -1.62293e-01
       C  1.51423e+01 -1.31366e+00  5.87963e-02
       C  1.30630e+01 -1.73769e+01 -3.79734e-02
       C  1.44451e+01 -1.73276e+01 -1.66160e-01
       C  1.23311e+01 -1.85569e+01  3.68920e-02
       C  1.51525e+01 -1.86211e+01 -6.43707e-02
       C  1.30126e+01 -1.49713e+01  2.62564e-02
       C  1.43588e+01 -1.50071e+01 -9.72414e-02
       C  1.22543e+01 -1.62146e+01  6.20045e-02
       C  1.51886e+01 -1.61034e+01 -1.24152e-01
       C  1.30002e+01 -1.24126e+01 -1.59354e-01
       C  1.44436e+01 -1.24563e+01 -8.78763e-02
       C  1.23394e+01 -1.37073e+01 -1.00582e-01
       C  1.51400e+01 -1.36155e+01 -5.73305e-02
       C  1.28108e-01 -4.24831e-02 -3.00391e-02
       C  1.62022e+00 -1.48155e-01 -2.41001e-02
       C -5.53526e-01 -1.28801e+00 -9.78779e-02
       C  2.29196e+00 -1.28908e+00 -1.06009e-01
       C  1.49743e-01 -1.73829e+01 -1.93623e-01
       C  1.59032e+00 -1.74227e+01  6.21578e-02
       C -5.64313e-01 -1.85652e+01 -4.74899e-02
       C  2.30333e+00 -1.85845e+01 -1.32532e-02
       C  1.40391e-01 -1.48905e+01 -2.31824e-01
       C  1.64164e+00 -1.49666e+01 -1.57940e-01
       C -5.34636e-01 -1.60810e+01 -1.00328e-01
       C  2.31787e+00 -1.62275e+01 -1.57080e-01
       C  2.01091e-01 -1.24349e+01 -1.71003e-01
       C  1.59184e+00 -1.25028e+01 -1.22171e-01
       C -4.76572e-01 -1.36674e+01 -1.88445e-01
       C  2.31192e+00 -1.37233e+01 -1.07292e-01
       H  5.79153e+00 -1.04060e+01  5.26779e+00
       C  5.31710e+00 -9.47468e+00  4.99178e+00
       C  5.86873e+00 -8.19832e+00  5.00891e+00
       H  6.94221e+00 -7.91849e+00  5.48269e+00
       C  5.17741e+00 -7.11155e+00  4.48054e+00
       H  5.60386e+00 -6.14974e+00  4.51085e+00
       C  3.84655e+00 -7.33067e+00  4.00126e+00
       H  3.51948e+00 -6.33909e+00  3.87758e+00
       C  3.52849e+00 -8.58266e+00  3.71244e+00
       H  2.48338e+00 -8.70711e+00  3.24480e+00
       C  4.19715e+00 -9.75389e+00  4.24181e+00
       H  3.89413e+00 -1.08147e+01  4.23721e+00
