96
# CELL(abcABC):   19.38859    19.38859    19.38859    90.00000    90.00000    90.00000  Step:           0  Bead:       0 positions{atomic_unit}  cell{atomic_unit}
       O  7.09781e+00  8.90061e+00 -1.44753e+00
       H  8.70030e+00  8.07291e+00 -1.11305e+00
       H  7.55512e+00  1.00533e+01 -2.78168e+00
       O  1.87706e+01  1.67071e+01  6.91640e-01
       H  1.91467e+01  1.54882e+01  2.11649e+00
       H  1.77030e+01  1.59663e+01 -5.97153e-01
       O  6.06602e-01  2.81947e+00  1.09529e+01
       H -5.42351e-01  3.76622e+00  9.90405e+00
       H  1.49477e+00  3.89473e+00  1.20262e+01
       O -4.20464e+00 -9.92106e-01  8.13905e+00
       H -5.77689e+00 -8.90061e-01  9.15950e+00
       H -3.06892e+00 -1.80091e+00  9.29745e+00
       O -8.68707e+00 -2.22610e+00  2.06358e+01
       H -7.33592e+00 -1.01856e+00  2.09268e+01
       H -9.53745e+00 -2.39806e+00  2.23214e+01
       O -4.02512e+00  4.06291e-01  2.16582e+01
       H -3.90039e+00 -1.22832e-01  2.33910e+01
       H -2.49822e+00 -3.04246e-01  2.09344e+01
       O  1.54523e+01  7.87071e+00  1.35304e+00
       H  1.49194e+01  9.57335e+00  1.58737e+00
       H  1.45925e+01  6.73120e+00  2.53412e+00
       O -7.40584e+00  6.15295e+00 -1.09982e+00
       H -5.90917e+00  6.46853e+00 -1.34171e-01
       H -7.09214e+00  4.53156e+00 -1.71965e+00
       O  1.96456e+01 -4.65251e+00  5.17407e+00
       H  1.93773e+01 -3.70386e+00  6.77278e+00
       H  1.99820e+01 -6.34003e+00  5.60493e+00
       O  9.49965e+00  4.84337e+00  1.16577e+01
       H  1.04653e+01  6.30413e+00  1.18335e+01
       H  1.00401e+01  3.83803e+00  1.30807e+01
       O -5.85059e+00  4.80368e+00  4.56936e+00
       H -7.58158e+00  4.66195e+00  5.03990e+00
       H -5.43485e+00  3.17663e+00  3.88717e+00
       O  6.30413e+00 -2.28468e+00  6.16996e+00
       H  5.32525e+00 -3.62638e+00  5.26667e+00
       H  5.16462e+00 -8.80612e-01  6.42129e+00
       O  2.78924e+00  2.68341e+00  1.54769e+00
       H  2.00311e+00  1.07336e+00  1.19242e+00
       H  2.98955e+00  2.85160e+00  3.34482e+00
       O  2.30925e+00  9.34659e+00  6.08114e+00
       H  3.98921e+00  8.88738e+00  6.65562e+00
       H  2.53601e+00  9.36548e+00  4.24244e+00
       O -6.55735e+00  1.22662e+01  8.48109e+00
       H -6.00366e+00  1.08754e+01  9.58847e+00
       H -6.63861e+00  1.37818e+01  9.40139e+00
       O -1.75745e+00  6.54790e+00  8.37149e+00
       H -5.40462e-01  7.47576e+00  7.40395e+00
       H -3.16907e+00  5.93941e+00  7.49465e+00
       O -5.24588e+00  8.58503e+00  1.20546e+01
       H -5.01911e+00  8.40928e+00  1.38479e+01
       H -3.81536e+00  7.74410e+00  1.13138e+01
       O  8.46597e-01  1.07733e+01  1.55317e+01
       H  1.08281e+00  9.14627e+00  1.48740e+01
       H  1.36060e+00  1.06788e+01  1.72400e+01
       O  2.07794e+01  7.71386e+00  1.02990e+00
       H  2.13388e+01  5.94697e+00  9.46753e-01
       H  1.89162e+01  7.51733e+00  8.99510e-01
       O  7.99165e+00  4.87927e+00  6.73120e+00
       H  8.78723e+00  4.46731e+00  8.36015e+00
       H  8.13716e+00  6.66317e+00  6.60648e+00
       O  2.64732e+01  1.00496e+01  6.78601e+00
       H  2.61481e+01  1.05825e+01  5.08336e+00
       H  2.79283e+01  1.09831e+01  7.23954e+00
       O  4.57314e-01  1.61383e+01  9.81713e+00
       H  4.59203e-01  1.78617e+01  1.03066e+01
       H  1.37005e+00  1.53106e+01  1.10814e+01
       O  1.14612e+01  1.98478e+01  1.54410e+01
       H  1.26328e+01  1.87083e+01  1.61742e+01
       H  9.89272e+00  1.93508e+01  1.62252e+01
       O  1.39122e+01  1.51726e+01  1.71001e+01
       H  1.26971e+01  1.47984e+01  1.57074e+01
       H  1.28747e+01  1.48136e+01  1.84381e+01
       O  3.72465e+00  2.21287e+00  6.86160e+00
       H  2.87238e+00  2.64373e+00  8.45463e+00
       H  5.33092e+00  2.98010e+00  6.67640e+00
       O  1.45018e+01  1.24816e+01  4.03268e+00
       H  1.34983e+01  1.22643e+01  5.51422e+00
       H  1.61817e+01  1.26253e+01  4.55235e+00
       O  5.23265e+00  1.39537e+01  1.37478e+01
       H  4.44653e+00  1.52841e+01  1.46416e+01
       H  4.24999e+00  1.23853e+01  1.39991e+01
       O  4.25755e+00  2.46628e+01  1.38876e+01
       H  5.13628e+00  2.54924e+01  1.52614e+01
       H  5.58414e+00  2.44360e+01  1.26744e+01
       O  6.90128e+00  1.88084e+01  1.75556e+01
       H  7.77433e+00  1.79694e+01  1.88651e+01
       H  6.04523e+00  2.01048e+01  1.84891e+01
       O  9.94563e+00  1.26763e+01  1.43411e+01
       H  8.15984e+00  1.33830e+01  1.45641e+01
       H  1.03085e+01  1.33358e+01  1.27235e+01
       O  6.62727e+00  1.27008e+01  1.92752e+00
       H  7.74221e+00  1.38007e+01  1.14706e+00
       H  6.77656e+00  1.13081e+01  7.91795e-01
       O  1.03085e+01  1.73779e+01  1.11267e+01
       H  1.03425e+01  1.81452e+01  1.27708e+01
       H  8.59636e+00  1.74573e+01  1.03633e+01
